 (written by mofun)

7480 atoms
9768 bonds
25608 angles
12912 dihedrals
0 impropers

18 atom types
10 bond types
13 angle types
8 dihedral types
   0.000000  62.101200 xlo xhi
   0.000000  62.101200 ylo yhi
   0.000000  62.101200 zlo zhi

Masses

 1  91.224000   # Zr3+4
 2  15.999400   # O_3
 3  12.010700   # C_3
 4   1.007940   # H_
 5   1.007940   # H_
 6  12.010700   # C_2
 7  12.010700   # C_R
 8  15.999400   # O_2_M
 9  91.224000   # Zr8f4
 10   1.007940   # H
 11  10.811000   # B
 12   1.007940   # H_
 13  12.010700   # C_2
 14  15.999400   # O_2_M
 15   1.007940   # H_
 16  15.999400   # O_2_M
 17  15.999400   # O_3_f
 18  91.224000   # Zr8f4

Pair Coeffs

1   0.069000   2.783168 # Zr3+4
2   0.060000   3.118146 # O_3
3   0.105000   3.430851 # C_3
4   0.044000   2.571134 # H_
5 0.044000 2.571134   # H_
6 0.105000 3.430851   # C_2
7 0.105000 3.430851   # C_R
8 0.060000 3.118146   # O_2_M
9 0.069000 2.783168   # Zr8f4
10 0.044000 2.571134   # H_
11 0.044000 2.571134   # H_
12 0.044000 2.571134   # H_
13 0.105000 3.430851   # C_2
14 0.060000 3.118146   # O_2_M
15 0.044000 2.571134   # H_
16 0.060000 3.118146   # O_2_M
17 0.060000 3.118146   # O_3_f
18 0.069000 2.783168   # Zr8f4

Bond Coeffs

 1 199.942436 2.410484   # O_2_M Zr8f4
 2 462.655054 1.379256   # C_R C_R
 3 389.261715 1.461000   # C_2 C_R
 4 709.805345 1.271799   # C_2 O_2_M
 5 357.440381 1.081418   # C_R H_
 6 354.483902 1.084416   # C_2 H_
 7 709.805345 1.271799   # C_2 O_2_M
 8 199.959824 2.410484   # O_3_f Zr8f4
 9 199.942436 2.410484   # O_2_M Zr8f4
 10 602.435128 0.966432   # H_ O_3_f

Angle Coeffs

 1 cosine/periodic  79.266221  -1  3   # C_2 O_2_M Zr8f4
 2 cosine/periodic  101.852144  -1  3   # C_2 C_R C_R
 3 cosine/periodic  111.297508  -1  3   # C_R C_R C_R
 4 cosine/periodic  57.289016  -1  3   # C_R C_R H_
 5 cosine/periodic  136.830763  -1  3   # C_R C_2 O_2_M
 6 cosine/periodic  205.385405  -1  3   # O_2_M C_2 O_2_M
 7 cosine/periodic  79.339562  -1  3   # H_ C_2 O_2_M
 8 cosine/periodic  205.385405  -1  3   # O_2_M C_2 O_2_M
 9 fourier  76.804805  0.343737  0.374972  0.281246   # O_3_f Zr8f4 O_3_f
 10 fourier  76.798126  0.343737  0.374972  0.281246   # O_2_M Zr8f4 O_3_f
 11 fourier  76.791448  0.343737  0.374972  0.281246   # O_2_M Zr8f4 O_2_M
 12 fourier  195.233589  0.343737  0.374972  0.281246   # Zr8f4 O_3_f Zr8f4
 13 fourier  78.498356  0.343737  0.374972  0.281246   # H_ O_3_f Zr8f4

Dihedral Coeffs

 1 6.737110 -1 2   # C_R C_2 O_2_M Zr8f4 M=2
 2 6.737110 -1 2   # O_2_M C_2 O_2_M Zr8f4 M=2
 3 3.368555 -1 2   # C_2 C_R C_R C_R M=4
 4 3.368555 -1 2   # C_2 C_R C_R H_ M=4
 5 3.368555 -1 2   # C_R C_R C_R C_R M=4
 6 3.368555 -1 2   # C_R C_R C_R H_ M=4
 7 1.250000 -1 2   # C_R C_R C_2 O_2_M M=4
 8 3.368555 -1 2   # H_ C_R C_R H_ M=4

Atoms

 1 1 18   0.000000   2.481978   0.000000   0.000000   # Zr8f4
 2 1 18   0.000000  18.219250   0.000000   0.000000   # Zr8f4
 3 1 18   0.000000   0.000000   2.481978   0.000000   # Zr8f4
 4 1 18   0.000000   0.000000  18.219250   0.000000   # Zr8f4
 5 1 18   0.000000   0.000000   0.000000   2.481978   # Zr8f4
 6 1 18   0.000000   0.000000   0.000000  18.219250   # Zr8f4
 7 1 18   0.000000  18.219250  10.350200  10.350200   # Zr8f4
 8 1 18   0.000000  12.832178   0.000000  10.350200   # Zr8f4
 9 1 18   0.000000   7.868222   0.000000  10.350200   # Zr8f4
 10 1 18   0.000000  10.350200   2.481978  10.350200   # Zr8f4
 11 1 18   0.000000  10.350200  18.219250  10.350200   # Zr8f4
 12 1 18   0.000000  10.350200   0.000000  12.832178   # Zr8f4
 13 1 18   0.000000  10.350200   0.000000   7.868222   # Zr8f4
 14 1 16   0.000000   3.529004   0.000000   1.972955   # O_2_M
 15 1 16   0.000000  17.172431   0.000000   1.972955   # O_2_M
 16 1 16   0.000000  17.172431   0.000000  18.728273   # O_2_M
 17 1 16   0.000000   3.529004   0.000000  18.728273   # O_2_M
 18 1 16   0.000000   1.972955   3.529004   0.000000   # O_2_M
 19 1 16   0.000000   1.972955  17.172431   0.000000   # O_2_M
 20 1 16   0.000000  18.728273  17.172431   0.000000   # O_2_M
 21 1 16   0.000000  18.728273   3.529004   0.000000   # O_2_M
 22 1 16   0.000000   0.000000   1.972955   3.529004   # O_2_M
 23 1 16   0.000000   0.000000   1.972955  17.172431   # O_2_M
 24 1 16   0.000000   0.000000  18.728273  17.172431   # O_2_M
 25 1 16   0.000000   0.000000  18.728273   3.529004   # O_2_M
 26 1 16   0.000000   0.000000   3.529004  18.728273   # O_2_M
 27 1 16   0.000000   0.000000  17.172431  18.728273   # O_2_M
 28 1 16   0.000000   0.000000  17.172431   1.972955   # O_2_M
 29 1 16   0.000000   0.000000   3.529004   1.972955   # O_2_M
 30 1 16   0.000000   3.529004   1.972955   0.000000   # O_2_M
 31 1 16   0.000000  17.172431   1.972955   0.000000   # O_2_M
 32 1 16   0.000000  17.172431  18.728273   0.000000   # O_2_M
 33 1 16   0.000000   3.529004  18.728273   0.000000   # O_2_M
 34 1 16   0.000000   1.972955   0.000000  17.172431   # O_2_M
 35 1 16   0.000000   1.972955   0.000000   3.529004   # O_2_M
 36 1 16   0.000000  18.728273   0.000000   3.529004   # O_2_M
 37 1 16   0.000000  18.728273   0.000000  17.172431   # O_2_M
 38 1 16   0.000000  17.172431  10.350200  12.323155   # O_2_M
 39 1 16   0.000000  17.172431  10.350200   8.377245   # O_2_M
 40 1 16   0.000000  18.728273   6.821196  10.350200   # O_2_M
 41 1 16   0.000000  18.728273  13.879204  10.350200   # O_2_M
 42 1 16   0.000000  17.172431  12.323155  10.350200   # O_2_M
 43 1 16   0.000000  17.172431   8.377245  10.350200   # O_2_M
 44 1 16   0.000000  18.728273  10.350200  13.879204   # O_2_M
 45 1 16   0.000000  18.728273  10.350200   6.821196   # O_2_M
 46 1 16   0.000000  13.879204   0.000000  12.323155   # O_2_M
 47 1 16   0.000000   6.821196   0.000000  12.323155   # O_2_M
 48 1 16   0.000000   6.821196   0.000000   8.377245   # O_2_M
 49 1 16   0.000000  13.879204   0.000000   8.377245   # O_2_M
 50 1 16   0.000000  12.323155   3.529004  10.350200   # O_2_M
 51 1 16   0.000000  12.323155  17.172431  10.350200   # O_2_M
 52 1 16   0.000000   8.377245  17.172431  10.350200   # O_2_M
 53 1 16   0.000000   8.377245   3.529004  10.350200   # O_2_M
 54 1 16   0.000000  10.350200   1.972955  13.879204   # O_2_M
 55 1 16   0.000000  10.350200   1.972955   6.821196   # O_2_M
 56 1 16   0.000000  10.350200  18.728273   6.821196   # O_2_M
 57 1 16   0.000000  10.350200  18.728273  13.879204   # O_2_M
 58 1 16   0.000000  10.350200   3.529004   8.377245   # O_2_M
 59 1 16   0.000000  10.350200  17.172431   8.377245   # O_2_M
 60 1 16   0.000000  10.350200  17.172431  12.323155   # O_2_M
 61 1 16   0.000000  10.350200   3.529004  12.323155   # O_2_M
 62 1 16   0.000000  13.879204   1.972955  10.350200   # O_2_M
 63 1 16   0.000000   6.821196   1.972955  10.350200   # O_2_M
 64 1 16   0.000000   6.821196  18.728273  10.350200   # O_2_M
 65 1 16   0.000000  13.879204  18.728273  10.350200   # O_2_M
 66 1 16   0.000000  12.323155   0.000000   6.821196   # O_2_M
 67 1 16   0.000000  12.323155   0.000000  13.879204   # O_2_M
 68 1 16   0.000000   8.377245   0.000000  13.879204   # O_2_M
 69 1 16   0.000000   8.377245   0.000000   6.821196   # O_2_M
 70 1 17   0.000000   1.161085  19.539315  19.539315   # O_3_f
 71 1 17   0.000000  19.539315   1.161085  19.539315   # O_3_f
 72 1 17   0.000000  19.539315  19.539315   1.161085   # O_3_f
 73 1 17   0.000000   1.161085   1.161085   1.161085   # O_3_f
 74 1 17   0.000000  19.539315   1.161085   1.161085   # O_3_f
 75 1 17   0.000000   1.161085  19.539315   1.161085   # O_3_f
 76 1 17   0.000000  19.539315  19.539315  19.539315   # O_3_f
 77 1 17   0.000000   1.161085   1.161085  19.539315   # O_3_f
 78 1 17   0.000000  19.539315  11.511285   9.189115   # O_3_f
 79 1 17   0.000000  19.539315   9.189115  11.511285   # O_3_f
 80 1 17   0.000000  19.539315  11.511285  11.511285   # O_3_f
 81 1 17   0.000000  19.539315   9.189115   9.189115   # O_3_f
 82 1 17   0.000000  11.511285  19.539315   9.189115   # O_3_f
 83 1 17   0.000000   9.189115   1.161085   9.189115   # O_3_f
 84 1 17   0.000000   9.189115  19.539315  11.511285   # O_3_f
 85 1 17   0.000000  11.511285   1.161085  11.511285   # O_3_f
 86 1 17   0.000000   9.189115   1.161085  11.511285   # O_3_f
 87 1 17   0.000000  11.511285  19.539315  11.511285   # O_3_f
 88 1 17   0.000000   9.189115  19.539315   9.189115   # O_3_f
 89 1 17   0.000000  11.511285   1.161085   9.189115   # O_3_f
 90 1 6   0.000000   3.179995   0.000000  17.521440   # C_2
 91 1 6   0.000000  17.521440   0.000000  17.521440   # C_2
 92 1 6   0.000000  17.521440   0.000000   3.179995   # C_2
 93 1 6   0.000000   3.179995   0.000000   3.179995   # C_2
 94 1 13   0.000000  17.521440   3.179995   0.000000   # C_2
 95 1 13   0.000000  17.521440  17.521440   0.000000   # C_2
 96 1 13   0.000000   3.179995  17.521440   0.000000   # C_2
 97 1 13   0.000000   3.179995   3.179995   0.000000   # C_2
 98 1 13   0.000000   0.000000  17.521440   3.179995   # C_2
 99 1 13   0.000000   0.000000  17.521440  17.521440   # C_2
 100 1 13   0.000000   0.000000   3.179995  17.521440   # C_2
 101 1 13   0.000000   0.000000   3.179995   3.179995   # C_2
 102 1 13   0.000000  17.521440  10.350200   7.171240   # C_2
 103 1 13   0.000000  17.521440  10.350200  13.530195   # C_2
 104 1 6   0.000000  17.521440  13.530195  10.350200   # C_2
 105 1 6   0.000000  17.521440   7.171240  10.350200   # C_2
 106 1 6   0.000000  13.530195   0.000000   7.171240   # C_2
 107 1 6   0.000000   7.171240   0.000000   7.171240   # C_2
 108 1 6   0.000000   7.171240   0.000000  13.530195   # C_2
 109 1 6   0.000000  13.530195   0.000000  13.530195   # C_2
 110 1 13   0.000000   7.171240   3.179995  10.350200   # C_2
 111 1 13   0.000000   7.171240  17.521440  10.350200   # C_2
 112 1 6   0.000000  13.530195  17.521440  10.350200   # C_2
 113 1 6   0.000000  13.530195   3.179995  10.350200   # C_2
 114 1 13   0.000000  10.350200  17.521440  13.530195   # C_2
 115 1 13   0.000000  10.350200  17.521440   7.171240   # C_2
 116 1 13   0.000000  10.350200   3.179995   7.171240   # C_2
 117 1 13   0.000000  10.350200   3.179995  13.530195   # C_2
 118 1 7   0.000000   4.243996   0.000000   4.243996   # C_R
 119 1 7   0.000000  16.457232   0.000000   4.243996   # C_R
 120 1 7   0.000000  16.457232   0.000000  16.457232   # C_R
 121 1 7   0.000000   4.243996   0.000000  16.457232   # C_R
 122 1 7   0.000000  16.457232   6.107032  10.350200   # C_R
 123 1 7   0.000000  16.457232  14.594196  10.350200   # C_R
 124 1 7   0.000000  14.594196   0.000000  14.594196   # C_R
 125 1 7   0.000000   6.107032   0.000000  14.594196   # C_R
 126 1 7   0.000000   6.107032   0.000000   6.107032   # C_R
 127 1 7   0.000000  14.594196   0.000000   6.107032   # C_R
 128 1 7   0.000000  14.594196   4.243996  10.350200   # C_R
 129 1 7   0.000000  14.594196  16.457232  10.350200   # C_R
 130 1 7   0.000000   5.537150   0.000000   3.817154   # C_R
 131 1 7   0.000000  15.163250   0.000000   3.817154   # C_R
 132 1 7   0.000000  15.163250   0.000000  16.883246   # C_R
 133 1 7   0.000000   5.537150   0.000000  16.883246   # C_R
 134 1 7   0.000000   3.817154   0.000000  15.163250   # C_R
 135 1 7   0.000000   3.817154   0.000000   5.537150   # C_R
 136 1 7   0.000000  16.883246   0.000000   5.537150   # C_R
 137 1 7   0.000000  16.883246   0.000000  15.163250   # C_R
 138 1 7   0.000000  16.883246   4.813050  10.350200   # C_R
 139 1 7   0.000000  16.883246  15.888385  10.350200   # C_R
 140 1 7   0.000000  15.163250  14.167354  10.350200   # C_R
 141 1 7   0.000000  15.163250   6.533046  10.350200   # C_R
 142 1 7   0.000000  15.888385   0.000000  14.167354   # C_R
 143 1 7   0.000000   4.813050   0.000000  14.167354   # C_R
 144 1 7   0.000000   4.813050   0.000000   6.533046   # C_R
 145 1 7   0.000000  15.888385   0.000000   6.533046   # C_R
 146 1 7   0.000000  14.167354   5.537150  10.350200   # C_R
 147 1 7   0.000000  14.167354  15.163250  10.350200   # C_R
 148 1 7   0.000000  15.888385   3.817154  10.350200   # C_R
 149 1 7   0.000000  15.888385  16.883246  10.350200   # C_R
 150 1 7   0.000000  14.167354   0.000000   4.813050   # C_R
 151 1 7   0.000000  14.167354   0.000000  15.888385   # C_R
 152 1 7   0.000000   6.533046   0.000000  15.888385   # C_R
 153 1 7   0.000000   6.533046   0.000000   4.813050   # C_R
 154 1 5   0.000000   5.776033   0.000000   2.812977   # H_
 155 1 5   0.000000  14.924367   0.000000   2.812977   # H_
 156 1 5   0.000000  14.924367   0.000000  17.887423   # H_
 157 1 5   0.000000   5.776033   0.000000  17.887423   # H_
 158 1 5   0.000000   2.812977   0.000000  14.924367   # H_
 159 1 5   0.000000   2.812977   0.000000   5.776033   # H_
 160 1 5   0.000000  17.887423   0.000000   5.776033   # H_
 161 1 5   0.000000  17.887423   0.000000  14.924367   # H_
 162 1 5   0.000000  17.887423   4.574167  10.350200   # H_
 163 1 5   0.000000  17.887423  16.126233  10.350200   # H_
 164 1 5   0.000000  14.924367  13.163177  10.350200   # H_
 165 1 5   0.000000  14.924367   7.537223  10.350200   # H_
 166 1 5   0.000000  16.126233   0.000000  13.163177   # H_
 167 1 5   0.000000   4.574167   0.000000  13.163177   # H_
 168 1 5   0.000000   4.574167   0.000000   7.537223   # H_
 169 1 5   0.000000  16.126233   0.000000   7.537223   # H_
 170 1 5   0.000000  13.163177   5.776033  10.350200   # H_
 171 1 5   0.000000  13.163177  14.924367  10.350200   # H_
 172 1 5   0.000000  16.126233   2.812977  10.350200   # H_
 173 1 5   0.000000  16.126233  17.887423  10.350200   # H_
 174 1 5   0.000000  13.163177   0.000000   4.574167   # H_
 175 1 5   0.000000  13.163177   0.000000  16.126233   # H_
 176 1 5   0.000000   7.537223   0.000000  16.126233   # H_
 177 1 5   0.000000   7.537223   0.000000   4.574167   # H_
 178 1 18   0.000000   2.481978  20.700400   0.000000   # Zr8f4
 179 1 18   0.000000  18.219250  20.700400   0.000000   # Zr8f4
 180 1 18   0.000000   0.000000  23.182378   0.000000   # Zr8f4
 181 1 18   0.000000   0.000000  20.700400   2.481978   # Zr8f4
 182 1 18   0.000000   0.000000  20.700400  18.219250   # Zr8f4
 183 1 18   0.000000   2.481978  31.050600  10.350200   # Zr8f4
 184 1 18   0.000000   0.000000  33.532578  10.350200   # Zr8f4
 185 1 18   0.000000   0.000000  28.568622  10.350200   # Zr8f4
 186 1 18   0.000000   0.000000  31.050600  12.832178   # Zr8f4
 187 1 18   0.000000   0.000000  31.050600   7.868222   # Zr8f4
 188 1 18   0.000000  12.832178  20.700400  10.350200   # Zr8f4
 189 1 18   0.000000   7.868222  20.700400  10.350200   # Zr8f4
 190 1 18   0.000000  10.350200  23.182378  10.350200   # Zr8f4
 191 1 18   0.000000  10.350200  38.919650  10.350200   # Zr8f4
 192 1 18   0.000000  10.350200  20.700400  12.832178   # Zr8f4
 193 1 18   0.000000  10.350200  20.700400   7.868222   # Zr8f4
 194 1 18   0.000000  12.832178  31.050600   0.000000   # Zr8f4
 195 1 18   0.000000   7.868222  31.050600   0.000000   # Zr8f4
 196 1 18   0.000000  10.350200  33.532578   0.000000   # Zr8f4
 197 1 18   0.000000  10.350200  28.568622   0.000000   # Zr8f4
 198 1 18   0.000000  10.350200  31.050600   2.481978   # Zr8f4
 199 1 18   0.000000  10.350200  31.050600  18.219250   # Zr8f4
 200 1 16   0.000000   3.529004  20.700400   1.972955   # O_2_M
 201 1 16   0.000000  17.172431  20.700400   1.972955   # O_2_M
 202 1 16   0.000000  17.172431  20.700400  18.728273   # O_2_M
 203 1 16   0.000000   3.529004  20.700400  18.728273   # O_2_M
 204 1 16   0.000000   1.972955  24.229404   0.000000   # O_2_M
 205 1 16   0.000000  18.728273  37.872831   0.000000   # O_2_M
 206 1 16   0.000000  18.728273  24.229404   0.000000   # O_2_M
 207 1 16   0.000000   0.000000  22.673355   3.529004   # O_2_M
 208 1 16   0.000000   0.000000  22.673355  17.172431   # O_2_M
 209 1 16   0.000000   0.000000  24.229404  18.728273   # O_2_M
 210 1 16   0.000000   0.000000  24.229404   1.972955   # O_2_M
 211 1 16   0.000000   3.529004  22.673355   0.000000   # O_2_M
 212 1 16   0.000000  17.172431  22.673355   0.000000   # O_2_M
 213 1 16   0.000000  17.172431  39.428673   0.000000   # O_2_M
 214 1 16   0.000000   1.972955  20.700400  17.172431   # O_2_M
 215 1 16   0.000000   1.972955  20.700400   3.529004   # O_2_M
 216 1 16   0.000000  18.728273  20.700400   3.529004   # O_2_M
 217 1 16   0.000000  18.728273  20.700400  17.172431   # O_2_M
 218 1 16   0.000000   3.529004  31.050600  12.323155   # O_2_M
 219 1 16   0.000000   3.529004  31.050600   8.377245   # O_2_M
 220 1 16   0.000000   1.972955  34.579604  10.350200   # O_2_M
 221 1 16   0.000000   1.972955  27.521596  10.350200   # O_2_M
 222 1 16   0.000000   0.000000  33.023555  13.879204   # O_2_M
 223 1 16   0.000000   0.000000  33.023555   6.821196   # O_2_M
 224 1 16   0.000000   0.000000  29.077645   6.821196   # O_2_M
 225 1 16   0.000000   0.000000  29.077645  13.879204   # O_2_M
 226 1 16   0.000000   0.000000  34.579604   8.377245   # O_2_M
 227 1 16   0.000000   0.000000  27.521596   8.377245   # O_2_M
 228 1 16   0.000000   0.000000  27.521596  12.323155   # O_2_M
 229 1 16   0.000000   0.000000  34.579604  12.323155   # O_2_M
 230 1 16   0.000000   3.529004  33.023555  10.350200   # O_2_M
 231 1 16   0.000000   3.529004  29.077645  10.350200   # O_2_M
 232 1 16   0.000000   1.972955  31.050600   6.821196   # O_2_M
 233 1 16   0.000000   1.972955  31.050600  13.879204   # O_2_M
 234 1 16   0.000000  13.879204  20.700400  12.323155   # O_2_M
 235 1 16   0.000000   6.821196  20.700400  12.323155   # O_2_M
 236 1 16   0.000000   6.821196  20.700400   8.377245   # O_2_M
 237 1 16   0.000000  13.879204  20.700400   8.377245   # O_2_M
 238 1 16   0.000000  12.323155  24.229404  10.350200   # O_2_M
 239 1 16   0.000000  12.323155  37.872831  10.350200   # O_2_M
 240 1 16   0.000000   8.377245  37.872831  10.350200   # O_2_M
 241 1 16   0.000000   8.377245  24.229404  10.350200   # O_2_M
 242 1 16   0.000000  10.350200  22.673355  13.879204   # O_2_M
 243 1 16   0.000000  10.350200  22.673355   6.821196   # O_2_M
 244 1 16   0.000000  10.350200  39.428673   6.821196   # O_2_M
 245 1 16   0.000000  10.350200  39.428673  13.879204   # O_2_M
 246 1 16   0.000000  10.350200  24.229404   8.377245   # O_2_M
 247 1 16   0.000000  10.350200  37.872831   8.377245   # O_2_M
 248 1 16   0.000000  10.350200  37.872831  12.323155   # O_2_M
 249 1 16   0.000000  10.350200  24.229404  12.323155   # O_2_M
 250 1 16   0.000000  13.879204  22.673355  10.350200   # O_2_M
 251 1 16   0.000000   6.821196  22.673355  10.350200   # O_2_M
 252 1 16   0.000000   6.821196  39.428673  10.350200   # O_2_M
 253 1 16   0.000000  13.879204  39.428673  10.350200   # O_2_M
 254 1 16   0.000000  12.323155  20.700400   6.821196   # O_2_M
 255 1 16   0.000000  12.323155  20.700400  13.879204   # O_2_M
 256 1 16   0.000000   8.377245  20.700400  13.879204   # O_2_M
 257 1 16   0.000000   8.377245  20.700400   6.821196   # O_2_M
 258 1 16   0.000000  13.879204  31.050600   1.972955   # O_2_M
 259 1 16   0.000000   6.821196  31.050600   1.972955   # O_2_M
 260 1 16   0.000000   6.821196  31.050600  18.728273   # O_2_M
 261 1 16   0.000000  13.879204  31.050600  18.728273   # O_2_M
 262 1 16   0.000000  12.323155  34.579604   0.000000   # O_2_M
 263 1 16   0.000000  12.323155  27.521596   0.000000   # O_2_M
 264 1 16   0.000000   8.377245  27.521596   0.000000   # O_2_M
 265 1 16   0.000000   8.377245  34.579604   0.000000   # O_2_M
 266 1 16   0.000000  10.350200  33.023555   3.529004   # O_2_M
 267 1 16   0.000000  10.350200  33.023555  17.172431   # O_2_M
 268 1 16   0.000000  10.350200  29.077645  17.172431   # O_2_M
 269 1 16   0.000000  10.350200  29.077645   3.529004   # O_2_M
 270 1 16   0.000000  10.350200  34.579604  18.728273   # O_2_M
 271 1 16   0.000000  10.350200  27.521596  18.728273   # O_2_M
 272 1 16   0.000000  10.350200  27.521596   1.972955   # O_2_M
 273 1 16   0.000000  10.350200  34.579604   1.972955   # O_2_M
 274 1 16   0.000000  13.879204  33.023555   0.000000   # O_2_M
 275 1 16   0.000000   6.821196  33.023555   0.000000   # O_2_M
 276 1 16   0.000000   6.821196  29.077645   0.000000   # O_2_M
 277 1 16   0.000000  13.879204  29.077645   0.000000   # O_2_M
 278 1 16   0.000000  12.323155  31.050600  17.172431   # O_2_M
 279 1 16   0.000000  12.323155  31.050600   3.529004   # O_2_M
 280 1 16   0.000000   8.377245  31.050600   3.529004   # O_2_M
 281 1 16   0.000000   8.377245  31.050600  17.172431   # O_2_M
 282 1 17   0.000000  19.539315  21.861485  19.539315   # O_3_f
 283 1 17   0.000000  19.539315  40.239715   1.161085   # O_3_f
 284 1 17   0.000000   1.161085  21.861485   1.161085   # O_3_f
 285 1 17   0.000000  19.539315  21.861485   1.161085   # O_3_f
 286 1 17   0.000000  19.539315  40.239715  19.539315   # O_3_f
 287 1 17   0.000000   1.161085  21.861485  19.539315   # O_3_f
 288 1 17   0.000000   1.161085  29.889515   9.189115   # O_3_f
 289 1 17   0.000000   1.161085  32.211685  11.511285   # O_3_f
 290 1 17   0.000000   1.161085  29.889515  11.511285   # O_3_f
 291 1 17   0.000000   1.161085  32.211685   9.189115   # O_3_f
 292 1 17   0.000000  11.511285  40.239715   9.189115   # O_3_f
 293 1 17   0.000000   9.189115  21.861485   9.189115   # O_3_f
 294 1 17   0.000000   9.189115  40.239715  11.511285   # O_3_f
 295 1 17   0.000000  11.511285  21.861485  11.511285   # O_3_f
 296 1 17   0.000000   9.189115  21.861485  11.511285   # O_3_f
 297 1 17   0.000000  11.511285  40.239715  11.511285   # O_3_f
 298 1 17   0.000000   9.189115  40.239715   9.189115   # O_3_f
 299 1 17   0.000000  11.511285  21.861485   9.189115   # O_3_f
 300 1 17   0.000000  11.511285  29.889515  19.539315   # O_3_f
 301 1 17   0.000000   9.189115  32.211685  19.539315   # O_3_f
 302 1 17   0.000000   9.189115  29.889515   1.161085   # O_3_f
 303 1 17   0.000000  11.511285  32.211685   1.161085   # O_3_f
 304 1 17   0.000000   9.189115  32.211685   1.161085   # O_3_f
 305 1 17   0.000000  11.511285  29.889515   1.161085   # O_3_f
 306 1 17   0.000000   9.189115  29.889515  19.539315   # O_3_f
 307 1 17   0.000000  11.511285  32.211685  19.539315   # O_3_f
 308 1 6   0.000000   3.179995  20.700400  17.521440   # C_2
 309 1 6   0.000000  17.521440  20.700400  17.521440   # C_2
 310 1 6   0.000000  17.521440  20.700400   3.179995   # C_2
 311 1 6   0.000000   3.179995  20.700400   3.179995   # C_2
 312 1 6   0.000000  17.521440  23.880395   0.000000   # C_2
 313 1 6   0.000000  17.521440  38.221840   0.000000   # C_2
 314 1 6   0.000000   3.179995  23.880395   0.000000   # C_2
 315 1 6   0.000000   0.000000  23.880395  17.521440   # C_2
 316 1 6   0.000000   0.000000  23.880395   3.179995   # C_2
 317 1 6   0.000000   3.179995  31.050600   7.171240   # C_2
 318 1 6   0.000000   3.179995  31.050600  13.530195   # C_2
 319 1 6   0.000000   3.179995  27.871640  10.350200   # C_2
 320 1 6   0.000000   3.179995  34.230595  10.350200   # C_2
 321 1 6   0.000000   0.000000  27.871640  13.530195   # C_2
 322 1 6   0.000000   0.000000  27.871640   7.171240   # C_2
 323 1 13   0.000000   0.000000  34.230595   7.171240   # C_2
 324 1 13   0.000000   0.000000  34.230595  13.530195   # C_2
 325 1 6   0.000000  13.530195  20.700400   7.171240   # C_2
 326 1 6   0.000000   7.171240  20.700400   7.171240   # C_2
 327 1 6   0.000000   7.171240  20.700400  13.530195   # C_2
 328 1 6   0.000000  13.530195  20.700400  13.530195   # C_2
 329 1 6   0.000000   7.171240  23.880395  10.350200   # C_2
 330 1 6   0.000000   7.171240  38.221840  10.350200   # C_2
 331 1 13   0.000000  13.530195  38.221840  10.350200   # C_2
 332 1 13   0.000000  13.530195  23.880395  10.350200   # C_2
 333 1 6   0.000000  10.350200  38.221840  13.530195   # C_2
 334 1 6   0.000000  10.350200  38.221840   7.171240   # C_2
 335 1 6   0.000000  10.350200  23.880395   7.171240   # C_2
 336 1 6   0.000000  10.350200  23.880395  13.530195   # C_2
 337 1 13   0.000000  13.530195  31.050600  17.521440   # C_2
 338 1 6   0.000000   7.171240  31.050600  17.521440   # C_2
 339 1 6   0.000000   7.171240  31.050600   3.179995   # C_2
 340 1 13   0.000000  13.530195  31.050600   3.179995   # C_2
 341 1 13   0.000000   7.171240  34.230595   0.000000   # C_2
 342 1 6   0.000000   7.171240  27.871640   0.000000   # C_2
 343 1 6   0.000000  13.530195  27.871640   0.000000   # C_2
 344 1 6   0.000000  13.530195  34.230595   0.000000   # C_2
 345 1 6   0.000000  10.350200  27.871640   3.179995   # C_2
 346 1 6   0.000000  10.350200  27.871640  17.521440   # C_2
 347 1 6   0.000000  10.350200  34.230595  17.521440   # C_2
 348 1 6   0.000000  10.350200  34.230595   3.179995   # C_2
 349 1 7   0.000000   4.243996  20.700400   4.243996   # C_R
 350 1 7   0.000000  16.457232  20.700400   4.243996   # C_R
 351 1 7   0.000000  16.457232  20.700400  16.457232   # C_R
 352 1 7   0.000000   4.243996  20.700400  16.457232   # C_R
 353 1 7   0.000000   4.243996  24.944396   0.000000   # C_R
 354 1 7   0.000000  16.457232  37.157632   0.000000   # C_R
 355 1 7   0.000000  16.457232  24.944396   0.000000   # C_R
 356 1 7   0.000000   0.000000  24.944396   4.243996   # C_R
 357 1 7   0.000000   0.000000  24.944396  16.457232   # C_R
 358 1 7   0.000000   4.243996  31.050600  14.594196   # C_R
 359 1 7   0.000000   4.243996  31.050600   6.107032   # C_R
 360 1 7   0.000000   4.243996  35.294596  10.350200   # C_R
 361 1 7   0.000000   4.243996  26.807432  10.350200   # C_R
 362 1 7   0.000000   0.000000  26.807432   6.107032   # C_R
 363 1 7   0.000000   0.000000  26.807432  14.594196   # C_R
 364 1 7   0.000000  14.594196  20.700400  14.594196   # C_R
 365 1 7   0.000000   6.107032  20.700400  14.594196   # C_R
 366 1 7   0.000000   6.107032  20.700400   6.107032   # C_R
 367 1 7   0.000000  14.594196  20.700400   6.107032   # C_R
 368 1 7   0.000000   6.107032  37.157632  10.350200   # C_R
 369 1 7   0.000000   6.107032  24.944396  10.350200   # C_R
 370 1 7   0.000000  10.350200  24.944396  14.594196   # C_R
 371 1 7   0.000000  10.350200  24.944396   6.107032   # C_R
 372 1 7   0.000000  10.350200  37.157632   6.107032   # C_R
 373 1 7   0.000000  10.350200  37.157632  14.594196   # C_R
 374 1 7   0.000000   6.107032  31.050600   4.243996   # C_R
 375 1 7   0.000000   6.107032  31.050600  16.457232   # C_R
 376 1 7   0.000000  14.594196  35.294596   0.000000   # C_R
 377 1 7   0.000000  14.594196  26.807432   0.000000   # C_R
 378 1 7   0.000000   6.107032  26.807432   0.000000   # C_R
 379 1 7   0.000000  10.350200  35.294596   4.243996   # C_R
 380 1 7   0.000000  10.350200  35.294596  16.457232   # C_R
 381 1 7   0.000000  10.350200  26.807432  16.457232   # C_R
 382 1 7   0.000000  10.350200  26.807432   4.243996   # C_R
 383 1 7   0.000000   5.537150  20.700400   3.817154   # C_R
 384 1 7   0.000000  15.163250  20.700400   3.817154   # C_R
 385 1 7   0.000000  15.163250  20.700400  16.883246   # C_R
 386 1 7   0.000000   5.537150  20.700400  16.883246   # C_R
 387 1 7   0.000000   3.817154  26.237550   0.000000   # C_R
 388 1 7   0.000000  16.883246  35.863650   0.000000   # C_R
 389 1 7   0.000000  16.883246  26.237550   0.000000   # C_R
 390 1 7   0.000000   0.000000  24.517554   5.537150   # C_R
 391 1 7   0.000000   0.000000  24.517554  15.163250   # C_R
 392 1 7   0.000000   0.000000  26.237550  16.883246   # C_R
 393 1 7   0.000000   0.000000  26.237550   3.817154   # C_R
 394 1 7   0.000000   5.537150  24.517554   0.000000   # C_R
 395 1 7   0.000000  15.163250  24.517554   0.000000   # C_R
 396 1 7   0.000000  15.163250  37.583646   0.000000   # C_R
 397 1 7   0.000000   3.817154  20.700400  15.163250   # C_R
 398 1 7   0.000000   3.817154  20.700400   5.537150   # C_R
 399 1 7   0.000000  16.883246  20.700400   5.537150   # C_R
 400 1 7   0.000000  16.883246  20.700400  15.163250   # C_R
 401 1 7   0.000000   5.537150  31.050600  14.167354   # C_R
 402 1 7   0.000000   5.537150  31.050600   6.533046   # C_R
 403 1 7   0.000000   3.817154  36.588785  10.350200   # C_R
 404 1 7   0.000000   3.817154  25.513450  10.350200   # C_R
 405 1 7   0.000000   0.000000  27.233446   4.813050   # C_R
 406 1 7   0.000000   0.000000  27.233446  15.888385   # C_R
 407 1 7   0.000000   0.000000  25.513450   6.533046   # C_R
 408 1 7   0.000000   0.000000  25.513450  14.167354   # C_R
 409 1 7   0.000000   5.537150  34.867754  10.350200   # C_R
 410 1 7   0.000000   5.537150  27.233446  10.350200   # C_R
 411 1 7   0.000000   3.817154  31.050600   4.813050   # C_R
 412 1 7   0.000000   3.817154  31.050600  15.888385   # C_R
 413 1 7   0.000000  15.888385  20.700400  14.167354   # C_R
 414 1 7   0.000000   4.813050  20.700400  14.167354   # C_R
 415 1 7   0.000000   4.813050  20.700400   6.533046   # C_R
 416 1 7   0.000000  15.888385  20.700400   6.533046   # C_R
 417 1 7   0.000000   6.533046  35.863650  10.350200   # C_R
 418 1 7   0.000000   6.533046  26.237550  10.350200   # C_R
 419 1 7   0.000000  10.350200  24.517554  15.888385   # C_R
 420 1 7   0.000000  10.350200  24.517554   4.813050   # C_R
 421 1 7   0.000000  10.350200  37.583646   4.813050   # C_R
 422 1 7   0.000000  10.350200  37.583646  15.888385   # C_R
 423 1 7   0.000000  10.350200  26.237550   6.533046   # C_R
 424 1 7   0.000000  10.350200  35.863650   6.533046   # C_R
 425 1 7   0.000000  10.350200  35.863650  14.167354   # C_R
 426 1 7   0.000000  10.350200  26.237550  14.167354   # C_R
 427 1 7   0.000000   4.813050  24.517554  10.350200   # C_R
 428 1 7   0.000000   4.813050  37.583646  10.350200   # C_R
 429 1 7   0.000000  14.167354  20.700400   4.813050   # C_R
 430 1 7   0.000000  14.167354  20.700400  15.888385   # C_R
 431 1 7   0.000000   6.533046  20.700400  15.888385   # C_R
 432 1 7   0.000000   6.533046  20.700400   4.813050   # C_R
 433 1 7   0.000000   4.813050  31.050600   3.817154   # C_R
 434 1 7   0.000000   4.813050  31.050600  16.883246   # C_R
 435 1 7   0.000000  14.167354  36.588785   0.000000   # C_R
 436 1 7   0.000000  14.167354  25.513450   0.000000   # C_R
 437 1 7   0.000000   6.533046  25.513450   0.000000   # C_R