 (written by mofun)

6186 atoms
8090 bonds
21426 angles
10092 dihedrals
0 impropers

18 atom types
10 bond types
13 angle types
8 dihedral types
   0.000000  62.101200 xlo xhi
   0.000000  62.101200 ylo yhi
   0.000000  62.101200 zlo zhi

Masses

 1  91.224000   # Zr3+4
 2  15.999400   # O_3
 3  12.010700   # C_3
 4   1.007940   # H_
 5   1.007940   # H_
 6  12.010700   # C_2
 7  12.010700   # C_R
 8  15.999400   # O_2_M
 9  91.224000   # Zr8f4
 10   1.007940   # H
 11  10.811000   # B
 12   1.007940   # H_
 13  12.010700   # C_2
 14  15.999400   # O_2_M
 15   1.007940   # H_
 16  15.999400   # O_2_M
 17  15.999400   # O_3_f
 18  91.224000   # Zr8f4

Pair Coeffs

1   0.069000   2.783168 # Zr3+4
2   0.060000   3.118146 # O_3
3   0.105000   3.430851 # C_3
4   0.044000   2.571134 # H_
5 0.044000 2.571134   # H_
6 0.105000 3.430851   # C_2
7 0.105000 3.430851   # C_R
8 0.060000 3.118146   # O_2_M
9 0.069000 2.783168   # Zr8f4
10 0.044000 2.571134   # H_
11 0.044000 2.571134   # H_
12 0.044000 2.571134   # H_
13 0.105000 3.430851   # C_2
14 0.060000 3.118146   # O_2_M
15 0.044000 2.571134   # H_
16 0.060000 3.118146   # O_2_M
17 0.060000 3.118146   # O_3_f
18 0.069000 2.783168   # Zr8f4

Bond Coeffs

 1 199.942436 2.410484   # O_2_M Zr8f4
 2 462.655054 1.379256   # C_R C_R
 3 389.261715 1.461000   # C_2 C_R
 4 709.805345 1.271799   # C_2 O_2_M
 5 357.440381 1.081418   # C_R H_
 6 354.483902 1.084416   # C_2 H_
 7 709.805345 1.271799   # C_2 O_2_M
 8 199.959824 2.410484   # O_3_f Zr8f4
 9 199.942436 2.410484   # O_2_M Zr8f4
 10 602.435128 0.966432   # H_ O_3_f

Angle Coeffs

 1 cosine/periodic  79.266221  -1  3   # C_2 O_2_M Zr8f4
 2 cosine/periodic  101.852144  -1  3   # C_2 C_R C_R
 3 cosine/periodic  111.297508  -1  3   # C_R C_R C_R
 4 cosine/periodic  57.289016  -1  3   # C_R C_R H_
 5 cosine/periodic  136.830763  -1  3   # C_R C_2 O_2_M
 6 cosine/periodic  205.385405  -1  3   # O_2_M C_2 O_2_M
 7 cosine/periodic  79.339562  -1  3   # H_ C_2 O_2_M
 8 cosine/periodic  205.385405  -1  3   # O_2_M C_2 O_2_M
 9 fourier  76.804805  0.343737  0.374972  0.281246   # O_3_f Zr8f4 O_3_f
 10 fourier  76.798126  0.343737  0.374972  0.281246   # O_2_M Zr8f4 O_3_f
 11 fourier  76.791448  0.343737  0.374972  0.281246   # O_2_M Zr8f4 O_2_M
 12 fourier  195.233589  0.343737  0.374972  0.281246   # Zr8f4 O_3_f Zr8f4
 13 fourier  78.498356  0.343737  0.374972  0.281246   # H_ O_3_f Zr8f4

Dihedral Coeffs

 1 6.737110 -1 2   # C_R C_2 O_2_M Zr8f4 M=2
 2 6.737110 -1 2   # O_2_M C_2 O_2_M Zr8f4 M=2
 3 3.368555 -1 2   # C_2 C_R C_R C_R M=4
 4 3.368555 -1 2   # C_2 C_R C_R H_ M=4
 5 3.368555 -1 2   # C_R C_R C_R C_R M=4
 6 3.368555 -1 2   # C_R C_R C_R H_ M=4
 7 1.250000 -1 2   # C_R C_R C_2 O_2_M M=4
 8 3.368555 -1 2   # H_ C_R C_R H_ M=4

Atoms

 1 1 18   0.000000   2.481978   0.000000   0.000000   # Zr8f4
 2 1 18   0.000000  18.219250   0.000000   0.000000   # Zr8f4
 3 1 18   0.000000   0.000000   2.481978   0.000000   # Zr8f4
 4 1 18   0.000000   0.000000   0.000000   2.481978   # Zr8f4
 5 1 18   0.000000   0.000000   0.000000  18.219250   # Zr8f4
 6 1 18   0.000000  18.219250  10.350200  10.350200   # Zr8f4
 7 1 18   0.000000  12.832178  10.350200   0.000000   # Zr8f4
 8 1 18   0.000000   7.868222  10.350200   0.000000   # Zr8f4
 9 1 18   0.000000  10.350200  12.832178   0.000000   # Zr8f4
 10 1 18   0.000000  10.350200   7.868222   0.000000   # Zr8f4
 11 1 18   0.000000  10.350200  10.350200   2.481978   # Zr8f4
 12 1 16   0.000000   3.529004   0.000000   1.972955   # O_2_M
 13 1 16   0.000000  17.172431   0.000000   1.972955   # O_2_M
 14 1 16   0.000000  17.172431   0.000000  18.728273   # O_2_M
 15 1 16   0.000000   3.529004   0.000000  18.728273   # O_2_M
 16 1 16   0.000000   1.972955   3.529004   0.000000   # O_2_M
 17 1 16   0.000000  18.728273   3.529004   0.000000   # O_2_M
 18 1 16   0.000000   0.000000   1.972955   3.529004   # O_2_M
 19 1 16   0.000000   0.000000   1.972955  17.172431   # O_2_M
 20 1 16   0.000000   0.000000  18.728273  17.172431   # O_2_M
 21 1 16   0.000000   0.000000   3.529004  18.728273   # O_2_M
 22 1 16   0.000000   0.000000  17.172431  18.728273   # O_2_M
 23 1 16   0.000000   0.000000   3.529004   1.972955   # O_2_M
 24 1 16   0.000000   3.529004   1.972955   0.000000   # O_2_M
 25 1 16   0.000000  17.172431   1.972955   0.000000   # O_2_M
 26 1 16   0.000000   1.972955   0.000000  17.172431   # O_2_M
 27 1 16   0.000000   1.972955   0.000000   3.529004   # O_2_M
 28 1 16   0.000000  18.728273   0.000000   3.529004   # O_2_M
 29 1 16   0.000000  18.728273   0.000000  17.172431   # O_2_M
 30 1 16   0.000000  17.172431  10.350200  12.323155   # O_2_M
 31 1 16   0.000000  17.172431  10.350200   8.377245   # O_2_M
 32 1 16   0.000000  18.728273   6.821196  10.350200   # O_2_M
 33 1 16   0.000000  18.728273  13.879204  10.350200   # O_2_M
 34 1 16   0.000000  17.172431  12.323155  10.350200   # O_2_M
 35 1 16   0.000000  17.172431   8.377245  10.350200   # O_2_M
 36 1 16   0.000000  18.728273  10.350200  13.879204   # O_2_M
 37 1 16   0.000000  18.728273  10.350200   6.821196   # O_2_M
 38 1 16   0.000000  13.879204  10.350200   1.972955   # O_2_M
 39 1 16   0.000000   6.821196  10.350200   1.972955   # O_2_M
 40 1 16   0.000000  12.323155  13.879204   0.000000   # O_2_M
 41 1 16   0.000000  12.323155   6.821196   0.000000   # O_2_M
 42 1 16   0.000000   8.377245   6.821196   0.000000   # O_2_M
 43 1 16   0.000000   8.377245  13.879204   0.000000   # O_2_M
 44 1 16   0.000000  10.350200  12.323155   3.529004   # O_2_M
 45 1 16   0.000000  10.350200   8.377245   3.529004   # O_2_M
 46 1 16   0.000000  10.350200   6.821196   1.972955   # O_2_M
 47 1 16   0.000000  10.350200  13.879204   1.972955   # O_2_M
 48 1 16   0.000000  13.879204  12.323155   0.000000   # O_2_M
 49 1 16   0.000000   6.821196  12.323155   0.000000   # O_2_M
 50 1 16   0.000000   6.821196   8.377245   0.000000   # O_2_M
 51 1 16   0.000000  13.879204   8.377245   0.000000   # O_2_M
 52 1 16   0.000000  12.323155  10.350200   3.529004   # O_2_M
 53 1 16   0.000000   8.377245  10.350200   3.529004   # O_2_M
 54 1 17   0.000000   1.161085  19.539315  19.539315   # O_3_f
 55 1 17   0.000000  19.539315   1.161085  19.539315   # O_3_f
 56 1 17   0.000000   1.161085   1.161085   1.161085   # O_3_f
 57 1 17   0.000000  19.539315   1.161085   1.161085   # O_3_f
 58 1 17   0.000000   1.161085   1.161085  19.539315   # O_3_f
 59 1 17   0.000000  19.539315  11.511285   9.189115   # O_3_f
 60 1 17   0.000000  19.539315   9.189115  11.511285   # O_3_f
 61 1 17   0.000000  19.539315  11.511285  11.511285   # O_3_f
 62 1 17   0.000000  19.539315   9.189115   9.189115   # O_3_f
 63 1 17   0.000000   9.189115   9.189115   1.161085   # O_3_f
 64 1 17   0.000000  11.511285  11.511285   1.161085   # O_3_f
 65 1 17   0.000000   9.189115  11.511285   1.161085   # O_3_f
 66 1 17   0.000000  11.511285   9.189115   1.161085   # O_3_f
 67 1 13   0.000000   3.179995   0.000000  17.521440   # C_2
 68 1 13   0.000000  17.521440   0.000000  17.521440   # C_2
 69 1 13   0.000000  17.521440   0.000000   3.179995   # C_2
 70 1 13   0.000000   3.179995   0.000000   3.179995   # C_2
 71 1 6   0.000000  17.521440   3.179995   0.000000   # C_2
 72 1 6   0.000000   3.179995   3.179995   0.000000   # C_2
 73 1 13   0.000000   0.000000  17.521440  17.521440   # C_2
 74 1 13   0.000000   0.000000   3.179995  17.521440   # C_2
 75 1 13   0.000000   0.000000   3.179995   3.179995   # C_2
 76 1 6   0.000000  17.521440  10.350200   7.171240   # C_2
 77 1 13   0.000000  17.521440  10.350200  13.530195   # C_2
 78 1 13   0.000000  17.521440  13.530195  10.350200   # C_2
 79 1 13   0.000000  17.521440   7.171240  10.350200   # C_2
 80 1 13   0.000000   7.171240  10.350200   3.179995   # C_2
 81 1 6   0.000000  13.530195  10.350200   3.179995   # C_2
 82 1 13   0.000000   7.171240  13.530195   0.000000   # C_2
 83 1 6   0.000000   7.171240   7.171240   0.000000   # C_2
 84 1 6   0.000000  13.530195   7.171240   0.000000   # C_2
 85 1 13   0.000000  13.530195  13.530195   0.000000   # C_2
 86 1 13   0.000000  10.350200   7.171240   3.179995   # C_2
 87 1 13   0.000000  10.350200  13.530195   3.179995   # C_2
 88 1 7   0.000000   4.243996   4.243996   0.000000   # C_R
 89 1 7   0.000000  16.457232   4.243996   0.000000   # C_R
 90 1 7   0.000000  16.457232  10.350200   6.107032   # C_R
 91 1 7   0.000000  14.594196  10.350200   4.243996   # C_R
 92 1 7   0.000000  14.594196   6.107032   0.000000   # C_R
 93 1 7   0.000000   6.107032   6.107032   0.000000   # C_R
 94 1 7   0.000000   3.817154   5.537150   0.000000   # C_R
 95 1 7   0.000000  16.883246   5.537150   0.000000   # C_R
 96 1 7   0.000000   5.537150   3.817154   0.000000   # C_R
 97 1 7   0.000000  15.163250   3.817154   0.000000   # C_R
 98 1 7   0.000000  15.163250  10.350200   6.533046   # C_R
 99 1 7   0.000000  16.883246  10.350200   4.813050   # C_R
 100 1 7   0.000000  15.888385  10.350200   3.817154   # C_R
 101 1 7   0.000000  14.167354   4.813050   0.000000   # C_R
 102 1 7   0.000000   6.533046   4.813050   0.000000   # C_R
 103 1 7   0.000000   4.813050   6.533046   0.000000   # C_R
 104 1 7   0.000000  15.888385   6.533046   0.000000   # C_R
 105 1 7   0.000000  14.167354  10.350200   5.537150   # C_R
 106 1 5   0.000000   2.812977   5.776033   0.000000   # H_
 107 1 5   0.000000  17.887423   5.776033   0.000000   # H_
 108 1 5   0.000000   5.776033   2.812977   0.000000   # H_
 109 1 5   0.000000  14.924367   2.812977   0.000000   # H_
 110 1 5   0.000000  14.924367  10.350200   7.537223   # H_
 111 1 5   0.000000  17.887423  10.350200   4.574167   # H_
 112 1 5   0.000000  16.126233  10.350200   2.812977   # H_
 113 1 5   0.000000  13.163177   4.574167   0.000000   # H_
 114 1 5   0.000000   7.537223   4.574167   0.000000   # H_
 115 1 5   0.000000   4.574167   7.537223   0.000000   # H_
 116 1 5   0.000000  16.126233   7.537223   0.000000   # H_
 117 1 5   0.000000  13.163177  10.350200   5.776033   # H_
 118 1 18   0.000000   0.000000  38.919650   0.000000   # Zr8f4
 119 1 18   0.000000   0.000000  20.700400  18.219250   # Zr8f4
 120 1 18   0.000000  10.350200  38.919650  10.350200   # Zr8f4
 121 1 18   0.000000  12.832178  31.050600   0.000000   # Zr8f4
 122 1 18   0.000000   7.868222  31.050600   0.000000   # Zr8f4
 123 1 18   0.000000  10.350200  33.532578   0.000000   # Zr8f4
 124 1 18   0.000000  10.350200  28.568622   0.000000   # Zr8f4
 125 1 18   0.000000  10.350200  31.050600   2.481978   # Zr8f4
 126 1 16   0.000000   3.529004  20.700400  18.728273   # O_2_M
 127 1 16   0.000000   1.972955  37.872831   0.000000   # O_2_M
 128 1 16   0.000000  18.728273  37.872831   0.000000   # O_2_M
 129 1 16   0.000000   0.000000  22.673355  17.172431   # O_2_M
 130 1 16   0.000000   0.000000  39.428673  17.172431   # O_2_M
 131 1 16   0.000000   0.000000  39.428673   3.529004   # O_2_M
 132 1 16   0.000000   0.000000  24.229404  18.728273   # O_2_M
 133 1 16   0.000000   0.000000  37.872831  18.728273   # O_2_M
 134 1 16   0.000000   0.000000  37.872831   1.972955   # O_2_M
 135 1 16   0.000000  17.172431  39.428673   0.000000   # O_2_M
 136 1 16   0.000000   3.529004  39.428673   0.000000   # O_2_M
 137 1 16   0.000000   1.972955  20.700400  17.172431   # O_2_M
 138 1 16   0.000000  12.323155  37.872831  10.350200   # O_2_M
 139 1 16   0.000000   8.377245  37.872831  10.350200   # O_2_M
 140 1 16   0.000000  10.350200  39.428673   6.821196   # O_2_M
 141 1 16   0.000000  10.350200  39.428673  13.879204   # O_2_M
 142 1 16   0.000000  10.350200  37.872831   8.377245   # O_2_M
 143 1 16   0.000000  10.350200  37.872831  12.323155   # O_2_M
 144 1 16   0.000000   6.821196  39.428673  10.350200   # O_2_M
 145 1 16   0.000000  13.879204  39.428673  10.350200   # O_2_M
 146 1 16   0.000000  13.879204  31.050600   1.972955   # O_2_M
 147 1 16   0.000000   6.821196  31.050600   1.972955   # O_2_M
 148 1 16   0.000000  12.323155  34.579604   0.000000   # O_2_M
 149 1 16   0.000000  12.323155  27.521596   0.000000   # O_2_M
 150 1 16   0.000000   8.377245  27.521596   0.000000   # O_2_M
 151 1 16   0.000000   8.377245  34.579604   0.000000   # O_2_M
 152 1 16   0.000000  10.350200  33.023555   3.529004   # O_2_M
 153 1 16   0.000000  10.350200  29.077645   3.529004   # O_2_M
 154 1 16   0.000000  10.350200  27.521596   1.972955   # O_2_M
 155 1 16   0.000000  10.350200  34.579604   1.972955   # O_2_M
 156 1 16   0.000000  13.879204  33.023555   0.000000   # O_2_M
 157 1 16   0.000000   6.821196  33.023555   0.000000   # O_2_M
 158 1 16   0.000000   6.821196  29.077645   0.000000   # O_2_M
 159 1 16   0.000000  13.879204  29.077645   0.000000   # O_2_M
 160 1 16   0.000000  12.323155  31.050600   3.529004   # O_2_M
 161 1 16   0.000000   8.377245  31.050600   3.529004   # O_2_M
 162 1 17   0.000000   1.161085  40.239715  19.539315   # O_3_f
 163 1 17   0.000000  19.539315  40.239715   1.161085   # O_3_f
 164 1 17   0.000000   1.161085  40.239715   1.161085   # O_3_f
 165 1 17   0.000000   1.161085  21.861485  19.539315   # O_3_f
 166 1 17   0.000000  11.511285  40.239715   9.189115   # O_3_f
 167 1 17   0.000000   9.189115  40.239715  11.511285   # O_3_f
 168 1 17   0.000000  11.511285  40.239715  11.511285   # O_3_f
 169 1 17   0.000000   9.189115  40.239715   9.189115   # O_3_f
 170 1 17   0.000000   9.189115  29.889515   1.161085   # O_3_f
 171 1 17   0.000000  11.511285  32.211685   1.161085   # O_3_f
 172 1 17   0.000000   9.189115  32.211685   1.161085   # O_3_f
 173 1 17   0.000000  11.511285  29.889515   1.161085   # O_3_f
 174 1 13   0.000000   3.179995  20.700400  17.521440   # C_2
 175 1 6   0.000000  17.521440  38.221840   0.000000   # C_2
 176 1 6   0.000000   3.179995  38.221840   0.000000   # C_2
 177 1 13   0.000000   0.000000  38.221840   3.179995   # C_2
 178 1 13   0.000000   0.000000  38.221840  17.521440   # C_2
 179 1 13   0.000000   0.000000  23.880395  17.521440   # C_2
 180 1 13   0.000000   7.171240  38.221840  10.350200   # C_2
 181 1 13   0.000000  13.530195  38.221840  10.350200   # C_2
 182 1 13   0.000000  10.350200  38.221840  13.530195   # C_2
 183 1 6   0.000000  10.350200  38.221840   7.171240   # C_2
 184 1 13   0.000000   7.171240  31.050600   3.179995   # C_2
 185 1 13   0.000000  13.530195  31.050600   3.179995   # C_2
 186 1 6   0.000000   7.171240  34.230595   0.000000   # C_2
 187 1 13   0.000000   7.171240  27.871640   0.000000   # C_2
 188 1 13   0.000000  13.530195  27.871640   0.000000   # C_2
 189 1 6   0.000000  13.530195  34.230595   0.000000   # C_2
 190 1 13   0.000000  10.350200  27.871640   3.179995   # C_2
 191 1 6   0.000000  10.350200  34.230595   3.179995   # C_2
 192 1 7   0.000000   4.243996  37.157632   0.000000   # C_R
 193 1 7   0.000000  16.457232  37.157632   0.000000   # C_R
 194 1 7   0.000000  10.350200  37.157632   6.107032   # C_R
 195 1 7   0.000000  14.594196  35.294596   0.000000   # C_R
 196 1 7   0.000000   6.107032  35.294596   0.000000   # C_R
 197 1 7   0.000000  10.350200  35.294596   4.243996   # C_R
 198 1 7   0.000000   3.817154  35.863650   0.000000   # C_R
 199 1 7   0.000000  16.883246  35.863650   0.000000   # C_R
 200 1 7   0.000000  15.163250  37.583646   0.000000   # C_R
 201 1 7   0.000000   5.537150  37.583646   0.000000   # C_R
 202 1 7   0.000000  10.350200  37.583646   4.813050   # C_R
 203 1 7   0.000000  10.350200  35.863650   6.533046   # C_R
 204 1 7   0.000000  14.167354  36.588785   0.000000   # C_R
 205 1 7   0.000000   6.533046  36.588785   0.000000   # C_R
 206 1 7   0.000000  10.350200  34.867754   5.537150   # C_R
 207 1 7   0.000000  10.350200  36.588785   3.817154   # C_R
 208 1 7   0.000000  15.888385  34.867754   0.000000   # C_R
 209 1 7   0.000000   4.813050  34.867754   0.000000   # C_R
 210 1 5   0.000000   2.812977  35.624767   0.000000   # H_
 211 1 5   0.000000  17.887423  35.624767   0.000000   # H_
 212 1 5   0.000000  14.924367  38.587823   0.000000   # H_
 213 1 5   0.000000   5.776033  38.587823   0.000000   # H_
 214 1 5   0.000000  10.350200  38.587823   4.574167   # H_
 215 1 5   0.000000  10.350200  35.624767   7.537223   # H_
 216 1 5   0.000000  13.163177  36.826633   0.000000   # H_
 217 1 5   0.000000   7.537223  36.826633   0.000000   # H_
 218 1 5   0.000000  10.350200  33.863577   5.776033   # H_
 219 1 5   0.000000  10.350200  36.826633   2.812977   # H_
 220 1 5   0.000000  16.126233  33.863577   0.000000   # H_
 221 1 5   0.000000   4.574167  33.863577   0.000000   # H_
 222 1 18   0.000000   2.481978  41.400800   0.000000   # Zr8f4
 223 1 18   0.000000  18.219250  41.400800   0.000000   # Zr8f4
 224 1 18   0.000000   0.000000  43.882778   0.000000   # Zr8f4
 225 1 18   0.000000   0.000000  59.620050   0.000000   # Zr8f4
 226 1 18   0.000000   0.000000  41.400800   2.481978   # Zr8f4
 227 1 18   0.000000   0.000000  41.400800  18.219250   # Zr8f4
 228 1 18   0.000000  12.832178  41.400800  10.350200   # Zr8f4
 229 1 18   0.000000   7.868222  41.400800  10.350200   # Zr8f4
 230 1 18   0.000000  10.350200  43.882778  10.350200   # Zr8f4
 231 1 18   0.000000  10.350200  41.400800  12.832178   # Zr8f4
 232 1 18   0.000000  10.350200  41.400800   7.868222   # Zr8f4
 233 1 18   0.000000  12.832178  51.751000   0.000000   # Zr8f4
 234 1 18   0.000000   7.868222  51.751000   0.000000   # Zr8f4
 235 1 18   0.000000  10.350200  54.232978   0.000000   # Zr8f4
 236 1 18   0.000000  10.350200  49.269022   0.000000   # Zr8f4
 237 1 18   0.000000  10.350200  51.751000   2.481978   # Zr8f4
 238 1 16   0.000000   3.529004  41.400800   1.972955   # O_2_M
 239 1 16   0.000000  17.172431  41.400800   1.972955   # O_2_M
 240 1 16   0.000000   3.529004  41.400800  18.728273   # O_2_M
 241 1 16   0.000000   1.972955  44.929804   0.000000   # O_2_M
 242 1 16   0.000000   1.972955  58.573231   0.000000   # O_2_M
 243 1 16   0.000000  18.728273  58.573231   0.000000   # O_2_M
 244 1 16   0.000000  18.728273  44.929804   0.000000   # O_2_M
 245 1 16   0.000000   0.000000  43.373755   3.529004   # O_2_M
 246 1 16   0.000000   0.000000  43.373755  17.172431   # O_2_M
 247 1 16   0.000000   0.000000  60.129073  17.172431   # O_2_M
 248 1 16   0.000000   0.000000  60.129073   3.529004   # O_2_M
 249 1 16   0.000000   0.000000  44.929804  18.728273   # O_2_M
 250 1 16   0.000000   0.000000  58.573231  18.728273   # O_2_M
 251 1 16   0.000000   0.000000  58.573231   1.972955   # O_2_M
 252 1 16   0.000000   0.000000  44.929804   1.972955   # O_2_M
 253 1 16   0.000000   3.529004  43.373755   0.000000   # O_2_M
 254 1 16   0.000000  17.172431  43.373755   0.000000   # O_2_M
 255 1 16   0.000000  17.172431  60.129073   0.000000   # O_2_M
 256 1 16   0.000000   3.529004  60.129073   0.000000   # O_2_M
 257 1 16   0.000000   1.972955  41.400800  17.172431   # O_2_M
 258 1 16   0.000000   1.972955  41.400800   3.529004   # O_2_M
 259 1 16   0.000000  18.728273  41.400800   3.529004   # O_2_M
 260 1 16   0.000000  13.879204  41.400800  12.323155   # O_2_M
 261 1 16   0.000000   6.821196  41.400800  12.323155   # O_2_M
 262 1 16   0.000000   6.821196  41.400800   8.377245   # O_2_M
 263 1 16   0.000000  13.879204  41.400800   8.377245   # O_2_M
 264 1 16   0.000000  12.323155  44.929804  10.350200   # O_2_M
 265 1 16   0.000000   8.377245  44.929804  10.350200   # O_2_M
 266 1 16   0.000000  10.350200  43.373755  13.879204   # O_2_M
 267 1 16   0.000000  10.350200  43.373755   6.821196   # O_2_M
 268 1 16   0.000000  10.350200  44.929804   8.377245   # O_2_M
 269 1 16   0.000000  10.350200  44.929804  12.323155   # O_2_M
 270 1 16   0.000000  13.879204  43.373755  10.350200   # O_2_M
 271 1 16   0.000000   6.821196  43.373755  10.350200   # O_2_M
 272 1 16   0.000000  12.323155  41.400800   6.821196   # O_2_M
 273 1 16   0.000000  12.323155  41.400800  13.879204   # O_2_M
 274 1 16   0.000000   8.377245  41.400800  13.879204   # O_2_M
 275 1 16   0.000000   8.377245  41.400800   6.821196   # O_2_M
 276 1 16   0.000000  13.879204  51.751000   1.972955   # O_2_M
 277 1 16   0.000000   6.821196  51.751000   1.972955   # O_2_M
 278 1 16   0.000000  12.323155  55.280004   0.000000   # O_2_M
 279 1 16   0.000000  12.323155  48.221996   0.000000   # O_2_M
 280 1 16   0.000000   8.377245  48.221996   0.000000   # O_2_M
 281 1 16   0.000000   8.377245  55.280004   0.000000   # O_2_M
 282 1 16   0.000000  10.350200  53.723955   3.529004   # O_2_M
 283 1 16   0.000000  10.350200  49.778045   3.529004   # O_2_M
 284 1 16   0.000000  10.350200  48.221996   1.972955   # O_2_M
 285 1 16   0.000000  10.350200  55.280004   1.972955   # O_2_M
 286 1 16   0.000000  13.879204  53.723955   0.000000   # O_2_M
 287 1 16   0.000000   6.821196  53.723955   0.000000   # O_2_M
 288 1 16   0.000000   6.821196  49.778045   0.000000   # O_2_M
 289 1 16   0.000000  13.879204  49.778045   0.000000   # O_2_M
 290 1 16   0.000000  12.323155  51.751000   3.529004   # O_2_M
 291 1 16   0.000000   8.377245  51.751000   3.529004   # O_2_M
 292 1 17   0.000000   1.161085  60.940115  19.539315   # O_3_f
 293 1 17   0.000000  19.539315  60.940115   1.161085   # O_3_f
 294 1 17   0.000000   1.161085  42.561885   1.161085   # O_3_f
 295 1 17   0.000000  19.539315  42.561885   1.161085   # O_3_f
 296 1 17   0.000000   1.161085  60.940115   1.161085   # O_3_f
 297 1 17   0.000000  19.539315  60.940115  19.539315   # O_3_f
 298 1 17   0.000000   1.161085  42.561885  19.539315   # O_3_f
 299 1 17   0.000000   9.189115  42.561885   9.189115   # O_3_f
 300 1 17   0.000000  11.511285  42.561885  11.511285   # O_3_f
 301 1 17   0.000000   9.189115  42.561885  11.511285   # O_3_f
 302 1 17   0.000000  11.511285  42.561885   9.189115   # O_3_f
 303 1 17   0.000000   9.189115  50.589915   1.161085   # O_3_f
 304 1 17   0.000000  11.511285  52.912085   1.161085   # O_3_f
 305 1 17   0.000000   9.189115  52.912085   1.161085   # O_3_f
 306 1 17   0.000000  11.511285  50.589915   1.161085   # O_3_f
 307 1 6   0.000000   3.179995  41.400800  17.521440   # C_2
 308 1 6   0.000000  17.521440  41.400800   3.179995   # C_2
 309 1 6   0.000000   3.179995  41.400800   3.179995   # C_2
 310 1 6   0.000000  17.521440  44.580795   0.000000   # C_2
 311 1 6   0.000000  17.521440  58.922240   0.000000   # C_2
 312 1 6   0.000000   3.179995  58.922240   0.000000   # C_2
 313 1 6   0.000000   3.179995  44.580795   0.000000   # C_2
 314 1 13   0.000000   0.000000  58.922240   3.179995   # C_2
 315 1 13   0.000000   0.000000  58.922240  17.521440   # C_2
 316 1 13   0.000000   0.000000  44.580795  17.521440   # C_2
 317 1 13   0.000000   0.000000  44.580795   3.179995   # C_2
 318 1 6   0.000000  13.530195  41.400800   7.171240   # C_2
 319 1 6   0.000000   7.171240  41.400800   7.171240   # C_2
 320 1 6   0.000000   7.171240  41.400800  13.530195   # C_2
 321 1 13   0.000000  13.530195  41.400800  13.530195   # C_2
 322 1 13   0.000000   7.171240  44.580795  10.350200   # C_2
 323 1 13   0.000000  13.530195  44.580795  10.350200   # C_2
 324 1 6   0.000000  10.350200  44.580795   7.171240   # C_2
 325 1 13   0.000000  10.350200  44.580795  13.530195   # C_2
 326 1 13   0.000000   7.171240  51.751000   3.179995   # C_2
 327 1 13   0.000000  13.530195  51.751000   3.179995   # C_2
 328 1 6   0.000000   7.171240  54.930995   0.000000   # C_2
 329 1 6   0.000000   7.171240  48.572040   0.000000   # C_2
 330 1 6   0.000000  13.530195  48.572040   0.000000   # C_2
 331 1 6   0.000000  13.530195  54.930995   0.000000   # C_2
 332 1 6   0.000000  10.350200  48.572040   3.179995   # C_2
 333 1 13   0.000000  10.350200  54.930995   3.179995   # C_2
 334 1 7   0.000000   4.243996  41.400800   4.243996   # C_R
 335 1 7   0.000000  16.457232  41.400800   4.243996   # C_R
 336 1 7   0.000000   4.243996  41.400800  16.457232   # C_R
 337 1 7   0.000000   4.243996  45.644796   0.000000   # C_R
 338 1 7   0.000000   4.243996  57.858032   0.000000   # C_R
 339 1 7   0.000000  16.457232  57.858032   0.000000   # C_R
 340 1 7   0.000000  16.457232  45.644796   0.000000   # C_R
 341 1 7   0.000000   6.107032  41.400800  14.594196   # C_R
 342 1 7   0.000000   6.107032  41.400800   6.107032   # C_R
 343 1 7   0.000000  14.594196  41.400800   6.107032   # C_R
 344 1 7   0.000000  10.350200  45.644796   6.107032   # C_R
 345 1 7   0.000000  14.594196  55.994996   0.000000   # C_R
 346 1 7   0.000000  14.594196  47.507832   0.000000   # C_R
 347 1 7   0.000000   6.107032  47.507832   0.000000   # C_R
 348 1 7   0.000000   6.107032  55.994996   0.000000   # C_R
 349 1 7   0.000000  10.350200  47.507832   4.243996   # C_R
 350 1 7   0.000000   5.537150  41.400800   3.817154   # C_R
 351 1 7   0.000000  15.163250  41.400800   3.817154   # C_R
 352 1 7   0.000000   5.537150  41.400800  16.883246   # C_R
 353 1 7   0.000000   3.817154  46.937950   0.000000   # C_R
 354 1 7   0.000000   3.817154  56.564050   0.000000   # C_R
 355 1 7   0.000000  16.883246  56.564050   0.000000   # C_R
 356 1 7   0.000000  16.883246  46.937950   0.000000   # C_R
 357 1 7   0.000000   5.537150  45.217954   0.000000   # C_R
 358 1 7   0.000000  15.163250  45.217954   0.000000   # C_R
 359 1 7   0.000000  15.163250  58.284046   0.000000   # C_R
 360 1 7   0.000000   5.537150  58.284046   0.000000   # C_R
 361 1 7   0.000000   3.817154  41.400800  15.163250   # C_R
 362 1 7   0.000000   3.817154  41.400800   5.537150   # C_R
 363 1 7   0.000000  16.883246  41.400800   5.537150   # C_R
 364 1 7   0.000000   4.813050  41.400800  14.167354   # C_R
 365 1 7   0.000000   4.813050  41.400800   6.533046   # C_R
 366 1 7   0.000000  15.888385  41.400800   6.533046   # C_R
 367 1 7   0.000000  10.350200  45.217954   4.813050   # C_R
 368 1 7   0.000000  10.350200  46.937950   6.533046   # C_R
 369 1 7   0.000000  14.167354  41.400800   4.813050   # C_R
 370 1 7   0.000000   6.533046  41.400800  15.888385   # C_R
 371 1 7   0.000000   6.533046  41.400800   4.813050   # C_R
 372 1 7   0.000000  14.167354  57.289185   0.000000   # C_R
 373 1 7   0.000000  14.167354  46.213850   0.000000   # C_R
 374 1 7   0.000000   6.533046  46.213850   0.000000   # C_R
 375 1 7   0.000000   6.533046  57.289185   0.000000   # C_R
 376 1 7   0.000000  10.350200  47.933846   5.537150   # C_R
 377 1 7   0.000000  10.350200  46.213850   3.817154   # C_R
 378 1 7   0.000000  15.888385  55.568154   0.000000   # C_R
 379 1 7   0.000000   4.813050  55.568154   0.000000   # C_R
 380 1 7   0.000000   4.813050  47.933846   0.000000   # C_R
 381 1 7   0.000000  15.888385  47.933846   0.000000   # C_R
 382 1 5   0.000000   5.776033  41.400800   2.812977   # H_
 383 1 5   0.000000  14.924367  41.400800   2.812977   # H_
 384 1 5   0.000000   5.776033  41.400800  17.887423   # H_
 385 1 5   0.000000   2.812977  47.176833   0.000000   # H_
 386 1 5   0.000000   2.812977  56.325167   0.000000   # H_
 387 1 5   0.000000  17.887423  56.325167   0.000000   # H_
 388 1 5   0.000000  17.887423  47.176833   0.000000   # H_
 389 1 5   0.000000   5.776033  44.213777   0.000000   # H_
 390 1 5   0.000000  14.924367  44.213777   0.000000   # H_
 391 1 5   0.000000  14.924367  59.288223   0.000000   # H_
 392 1 5   0.000000   5.776033  59.288223   0.000000   # H_
 393 1 5   0.000000   2.812977  41.400800  14.924367   # H_
 394 1 5   0.000000   2.812977  41.400800   5.776033   # H_
 395 1 5   0.000000  17.887423  41.400800   5.776033   # H_
 396 1 5   0.000000   4.574167  41.400800  13.163177   # H_
 397 1 5   0.000000   4.574167  41.400800   7.537223   # H_
 398 1 5   0.000000  16.126233  41.400800   7.537223   # H_
 399 1 5   0.000000  10.350200  44.213777   4.574167   # H_
 400 1 5   0.000000  10.350200  47.176833   7.537223   # H_
 401 1 5   0.000000  13.163177  41.400800   4.574167   # H_
 402 1 5   0.000000   7.537223  41.400800  16.126233   # H_
 403 1 5   0.000000   7.537223  41.400800   4.574167   # H_
 404 1 5   0.000000  13.163177  57.527033   0.000000   # H_
 405 1 5   0.000000  13.163177  45.974967   0.000000   # H_
 406 1 5   0.000000   7.537223  45.974967   0.000000   # H_
 407 1 5   0.000000   7.537223  57.527033   0.000000   # H_
 408 1 5   0.000000  10.350200  48.938023   5.776033   # H_
 409 1 5   0.000000  10.350200  45.974967   2.812977   # H_
 410 1 5   0.000000  16.126233  54.563977   0.000000   # H_
 411 1 5   0.000000   4.574167  54.563977   0.000000   # H_
 412 1 5   0.000000   4.574167  48.938023   0.000000   # H_
 413 1 5   0.000000  16.126233  48.938023   0.000000   # H_
 414 1 18   0.000000  23.182378   0.000000   0.000000   # Zr8f4
 415 1 18   0.000000  38.919650   0.000000   0.000000   # Zr8f4
 416 1 18   0.000000  20.700400   2.481978   0.000000   # Zr8f4
 417 1 18   0.000000  20.700400   0.000000   2.481978   # Zr8f4
 418 1 18   0.000000  20.700400   0.000000  18.219250   # Zr8f4
 419 1 18   0.000000  23.182378  10.350200  10.350200   # Zr8f4
 420 1 18   0.000000  38.919650  10.350200  10.350200   # Zr8f4
 421 1 18   0.000000  20.700400  12.832178  10.350200   # Zr8f4
 422 1 18   0.000000  20.700400   7.868222  10.350200   # Zr8f4
 423 1 18   0.000000  20.700400  10.350200  12.832178   # Zr8f4
 424 1 18   0.000000  20.700400  10.350200   7.868222   # Zr8f4
 425 1 18   0.000000  31.050600  10.350200  18.219250   # Zr8f4
 426 1 16   0.000000  24.229404   0.000000   1.972955   # O_2_M
 427 1 16   0.000000  37.872831   0.000000   1.972955   # O_2_M
 428 1 16   0.000000  24.229404   0.000000  18.728273   # O_2_M
 429 1 16   0.000000  22.673355   3.529004   0.000000   # O_2_M
 430 1 16   0.000000  39.428673  17.172431   0.000000   # O_2_M
 431 1 16   0.000000  39.428673   3.529004   0.000000   # O_2_M
 432 1 16   0.000000  20.700400   1.972955   3.529004   # O_2_M
 433 1 16   0.000000  20.700400   1.972955  17.172431   # O_2_M
 434 1 16   0.000000  20.700400   3.529004  18.728273   # O_2_M
 435 1 16   0.000000  20.700400   3.529004   1.972955   # O_2_M
 436 1 16   0.000000  24.229404   1.972955   0.000000   # O_2_M
 437 1 16   0.000000  37.872831   1.972955   0.000000   # O_2_M