 (written by mofun)

6716 atoms
8780 bonds
23196 angles
11112 dihedrals
0 impropers

18 atom types
10 bond types
13 angle types
8 dihedral types
   0.000000  62.101200 xlo xhi
   0.000000  62.101200 ylo yhi
   0.000000  62.101200 zlo zhi

Masses

 1  91.224000   # Zr3+4
 2  15.999400   # O_3
 3  12.010700   # C_3
 4   1.007940   # H_
 5   1.007940   # H_
 6  12.010700   # C_2
 7  12.010700   # C_R
 8  15.999400   # O_2_M
 9  91.224000   # Zr8f4
 10   1.007940   # H
 11  10.811000   # B
 12   1.007940   # H_
 13  12.010700   # C_2
 14  15.999400   # O_2_M
 15   1.007940   # H_
 16  15.999400   # O_2_M
 17  15.999400   # O_3_f
 18  91.224000   # Zr8f4

Pair Coeffs

1   0.069000   2.783168 # Zr3+4
2   0.060000   3.118146 # O_3
3   0.105000   3.430851 # C_3
4   0.044000   2.571134 # H_
5 0.044000 2.571134   # H_
6 0.105000 3.430851   # C_2
7 0.105000 3.430851   # C_R
8 0.060000 3.118146   # O_2_M
9 0.069000 2.783168   # Zr8f4
10 0.044000 2.571134   # H_
11 0.044000 2.571134   # H_
12 0.044000 2.571134   # H_
13 0.105000 3.430851   # C_2
14 0.060000 3.118146   # O_2_M
15 0.044000 2.571134   # H_
16 0.060000 3.118146   # O_2_M
17 0.060000 3.118146   # O_3_f
18 0.069000 2.783168   # Zr8f4

Bond Coeffs

 1 199.942436 2.410484   # O_2_M Zr8f4
 2 462.655054 1.379256   # C_R C_R
 3 389.261715 1.461000   # C_2 C_R
 4 709.805345 1.271799   # C_2 O_2_M
 5 357.440381 1.081418   # C_R H_
 6 354.483902 1.084416   # C_2 H_
 7 709.805345 1.271799   # C_2 O_2_M
 8 199.959824 2.410484   # O_3_f Zr8f4
 9 199.942436 2.410484   # O_2_M Zr8f4
 10 602.435128 0.966432   # H_ O_3_f

Angle Coeffs

 1 cosine/periodic  79.266221  -1  3   # C_2 O_2_M Zr8f4
 2 cosine/periodic  101.852144  -1  3   # C_2 C_R C_R
 3 cosine/periodic  111.297508  -1  3   # C_R C_R C_R
 4 cosine/periodic  57.289016  -1  3   # C_R C_R H_
 5 cosine/periodic  136.830763  -1  3   # C_R C_2 O_2_M
 6 cosine/periodic  205.385405  -1  3   # O_2_M C_2 O_2_M
 7 cosine/periodic  79.339562  -1  3   # H_ C_2 O_2_M
 8 cosine/periodic  205.385405  -1  3   # O_2_M C_2 O_2_M
 9 fourier  76.804805  0.343737  0.374972  0.281246   # O_3_f Zr8f4 O_3_f
 10 fourier  76.798126  0.343737  0.374972  0.281246   # O_2_M Zr8f4 O_3_f
 11 fourier  76.791448  0.343737  0.374972  0.281246   # O_2_M Zr8f4 O_2_M
 12 fourier  195.233589  0.343737  0.374972  0.281246   # Zr8f4 O_3_f Zr8f4
 13 fourier  78.498356  0.343737  0.374972  0.281246   # H_ O_3_f Zr8f4

Dihedral Coeffs

 1 6.737110 -1 2   # C_R C_2 O_2_M Zr8f4 M=2
 2 6.737110 -1 2   # O_2_M C_2 O_2_M Zr8f4 M=2
 3 3.368555 -1 2   # C_2 C_R C_R C_R M=4
 4 3.368555 -1 2   # C_2 C_R C_R H_ M=4
 5 3.368555 -1 2   # C_R C_R C_R C_R M=4
 6 3.368555 -1 2   # C_R C_R C_R H_ M=4
 7 1.250000 -1 2   # C_R C_R C_2 O_2_M M=4
 8 3.368555 -1 2   # H_ C_R C_R H_ M=4

Atoms

 1 1 18   0.000000   2.481978   0.000000   0.000000   # Zr8f4
 2 1 18   0.000000   0.000000   2.481978   0.000000   # Zr8f4
 3 1 18   0.000000   0.000000   0.000000   2.481978   # Zr8f4
 4 1 18   0.000000   2.481978  10.350200  10.350200   # Zr8f4
 5 1 18   0.000000  18.219250  10.350200  10.350200   # Zr8f4
 6 1 18   0.000000   0.000000  12.832178  10.350200   # Zr8f4
 7 1 18   0.000000   0.000000   7.868222  10.350200   # Zr8f4
 8 1 18   0.000000   0.000000  10.350200  12.832178   # Zr8f4
 9 1 18   0.000000   0.000000  10.350200   7.868222   # Zr8f4
 10 1 18   0.000000  10.350200  18.219250  10.350200   # Zr8f4
 11 1 18   0.000000  12.832178  10.350200   0.000000   # Zr8f4
 12 1 18   0.000000   7.868222  10.350200   0.000000   # Zr8f4
 13 1 18   0.000000  10.350200  12.832178   0.000000   # Zr8f4
 14 1 18   0.000000  10.350200   7.868222   0.000000   # Zr8f4
 15 1 18   0.000000  10.350200  10.350200   2.481978   # Zr8f4
 16 1 18   0.000000  10.350200  10.350200  18.219250   # Zr8f4
 17 1 16   0.000000   3.529004   0.000000   1.972955   # O_2_M
 18 1 16   0.000000  17.172431   0.000000  18.728273   # O_2_M
 19 1 16   0.000000   1.972955   3.529004   0.000000   # O_2_M
 20 1 16   0.000000   0.000000   1.972955   3.529004   # O_2_M
 21 1 16   0.000000   0.000000   3.529004   1.972955   # O_2_M
 22 1 16   0.000000   3.529004   1.972955   0.000000   # O_2_M
 23 1 16   0.000000   1.972955   0.000000   3.529004   # O_2_M
 24 1 16   0.000000  18.728273   0.000000  17.172431   # O_2_M
 25 1 16   0.000000   3.529004  10.350200  12.323155   # O_2_M
 26 1 16   0.000000  17.172431  10.350200  12.323155   # O_2_M
 27 1 16   0.000000  17.172431  10.350200   8.377245   # O_2_M
 28 1 16   0.000000   3.529004  10.350200   8.377245   # O_2_M
 29 1 16   0.000000   1.972955  13.879204  10.350200   # O_2_M
 30 1 16   0.000000   1.972955   6.821196  10.350200   # O_2_M
 31 1 16   0.000000  18.728273   6.821196  10.350200   # O_2_M
 32 1 16   0.000000  18.728273  13.879204  10.350200   # O_2_M
 33 1 16   0.000000   0.000000  12.323155  13.879204   # O_2_M
 34 1 16   0.000000   0.000000  12.323155   6.821196   # O_2_M
 35 1 16   0.000000   0.000000   8.377245   6.821196   # O_2_M
 36 1 16   0.000000   0.000000   8.377245  13.879204   # O_2_M
 37 1 16   0.000000   0.000000  13.879204   8.377245   # O_2_M
 38 1 16   0.000000   0.000000   6.821196   8.377245   # O_2_M
 39 1 16   0.000000   0.000000   6.821196  12.323155   # O_2_M
 40 1 16   0.000000   0.000000  13.879204  12.323155   # O_2_M
 41 1 16   0.000000   3.529004  12.323155  10.350200   # O_2_M
 42 1 16   0.000000  17.172431  12.323155  10.350200   # O_2_M
 43 1 16   0.000000  17.172431   8.377245  10.350200   # O_2_M
 44 1 16   0.000000   3.529004   8.377245  10.350200   # O_2_M
 45 1 16   0.000000   1.972955  10.350200   6.821196   # O_2_M
 46 1 16   0.000000   1.972955  10.350200  13.879204   # O_2_M
 47 1 16   0.000000  18.728273  10.350200  13.879204   # O_2_M
 48 1 16   0.000000  18.728273  10.350200   6.821196   # O_2_M
 49 1 16   0.000000  12.323155  17.172431  10.350200   # O_2_M
 50 1 16   0.000000   8.377245  17.172431  10.350200   # O_2_M
 51 1 16   0.000000  10.350200  18.728273   6.821196   # O_2_M
 52 1 16   0.000000  10.350200  18.728273  13.879204   # O_2_M
 53 1 16   0.000000  10.350200  17.172431   8.377245   # O_2_M
 54 1 16   0.000000  10.350200  17.172431  12.323155   # O_2_M
 55 1 16   0.000000   6.821196  18.728273  10.350200   # O_2_M
 56 1 16   0.000000  13.879204  18.728273  10.350200   # O_2_M
 57 1 16   0.000000  13.879204  10.350200   1.972955   # O_2_M
 58 1 16   0.000000   6.821196  10.350200   1.972955   # O_2_M
 59 1 16   0.000000   6.821196  10.350200  18.728273   # O_2_M
 60 1 16   0.000000  13.879204  10.350200  18.728273   # O_2_M
 61 1 16   0.000000  12.323155  13.879204   0.000000   # O_2_M
 62 1 16   0.000000  12.323155   6.821196   0.000000   # O_2_M
 63 1 16   0.000000   8.377245   6.821196   0.000000   # O_2_M
 64 1 16   0.000000   8.377245  13.879204   0.000000   # O_2_M
 65 1 16   0.000000  10.350200  12.323155   3.529004   # O_2_M
 66 1 16   0.000000  10.350200  12.323155  17.172431   # O_2_M
 67 1 16   0.000000  10.350200   8.377245  17.172431   # O_2_M
 68 1 16   0.000000  10.350200   8.377245   3.529004   # O_2_M
 69 1 16   0.000000  10.350200  13.879204  18.728273   # O_2_M
 70 1 16   0.000000  10.350200   6.821196  18.728273   # O_2_M
 71 1 16   0.000000  10.350200   6.821196   1.972955   # O_2_M
 72 1 16   0.000000  10.350200  13.879204   1.972955   # O_2_M
 73 1 16   0.000000  13.879204  12.323155   0.000000   # O_2_M
 74 1 16   0.000000   6.821196  12.323155   0.000000   # O_2_M
 75 1 16   0.000000   6.821196   8.377245   0.000000   # O_2_M
 76 1 16   0.000000  13.879204   8.377245   0.000000   # O_2_M
 77 1 16   0.000000  12.323155  10.350200  17.172431   # O_2_M
 78 1 16   0.000000  12.323155  10.350200   3.529004   # O_2_M
 79 1 16   0.000000   8.377245  10.350200   3.529004   # O_2_M
 80 1 16   0.000000   8.377245  10.350200  17.172431   # O_2_M
 81 1 17   0.000000  19.539315   1.161085  19.539315   # O_3_f
 82 1 17   0.000000   1.161085   1.161085   1.161085   # O_3_f
 83 1 17   0.000000  19.539315  19.539315  19.539315   # O_3_f
 84 1 17   0.000000   1.161085   9.189115   9.189115   # O_3_f
 85 1 17   0.000000  19.539315  11.511285   9.189115   # O_3_f
 86 1 17   0.000000  19.539315   9.189115  11.511285   # O_3_f
 87 1 17   0.000000   1.161085  11.511285  11.511285   # O_3_f
 88 1 17   0.000000  19.539315  11.511285  11.511285   # O_3_f
 89 1 17   0.000000   1.161085   9.189115  11.511285   # O_3_f
 90 1 17   0.000000  19.539315   9.189115   9.189115   # O_3_f
 91 1 17   0.000000   1.161085  11.511285   9.189115   # O_3_f
 92 1 17   0.000000  11.511285  19.539315   9.189115   # O_3_f
 93 1 17   0.000000   9.189115  19.539315  11.511285   # O_3_f
 94 1 17   0.000000  11.511285  19.539315  11.511285   # O_3_f
 95 1 17   0.000000   9.189115  19.539315   9.189115   # O_3_f
 96 1 17   0.000000  11.511285   9.189115  19.539315   # O_3_f
 97 1 17   0.000000   9.189115  11.511285  19.539315   # O_3_f
 98 1 17   0.000000   9.189115   9.189115   1.161085   # O_3_f
 99 1 17   0.000000  11.511285  11.511285   1.161085   # O_3_f
 100 1 17   0.000000   9.189115  11.511285   1.161085   # O_3_f
 101 1 17   0.000000  11.511285   9.189115   1.161085   # O_3_f
 102 1 17   0.000000   9.189115   9.189115  19.539315   # O_3_f
 103 1 17   0.000000  11.511285  11.511285  19.539315   # O_3_f
 104 1 13   0.000000  17.521440   0.000000  17.521440   # C_2
 105 1 13   0.000000   3.179995   0.000000   3.179995   # C_2
 106 1 6   0.000000   3.179995   3.179995   0.000000   # C_2
 107 1 6   0.000000   0.000000   3.179995   3.179995   # C_2
 108 1 6   0.000000   3.179995  10.350200   7.171240   # C_2
 109 1 6   0.000000  17.521440  10.350200   7.171240   # C_2
 110 1 6   0.000000  17.521440  10.350200  13.530195   # C_2
 111 1 6   0.000000   3.179995  10.350200  13.530195   # C_2
 112 1 6   0.000000  17.521440  13.530195  10.350200   # C_2
 113 1 13   0.000000  17.521440   7.171240  10.350200   # C_2
 114 1 13   0.000000   3.179995   7.171240  10.350200   # C_2
 115 1 6   0.000000   3.179995  13.530195  10.350200   # C_2
 116 1 13   0.000000   0.000000   7.171240  13.530195   # C_2
 117 1 6   0.000000   0.000000   7.171240   7.171240   # C_2
 118 1 13   0.000000   0.000000  13.530195   7.171240   # C_2
 119 1 13   0.000000   0.000000  13.530195  13.530195   # C_2
 120 1 6   0.000000   7.171240  17.521440  10.350200   # C_2
 121 1 6   0.000000  13.530195  17.521440  10.350200   # C_2
 122 1 6   0.000000  10.350200  17.521440  13.530195   # C_2
 123 1 6   0.000000  10.350200  17.521440   7.171240   # C_2
 124 1 6   0.000000  13.530195  10.350200  17.521440   # C_2
 125 1 6   0.000000   7.171240  10.350200  17.521440   # C_2
 126 1 6   0.000000   7.171240  10.350200   3.179995   # C_2
 127 1 6   0.000000  13.530195  10.350200   3.179995   # C_2
 128 1 13   0.000000   7.171240  13.530195   0.000000   # C_2
 129 1 6   0.000000   7.171240   7.171240   0.000000   # C_2
 130 1 13   0.000000  13.530195   7.171240   0.000000   # C_2
 131 1 13   0.000000  13.530195  13.530195   0.000000   # C_2
 132 1 13   0.000000  10.350200   7.171240   3.179995   # C_2
 133 1 13   0.000000  10.350200   7.171240  17.521440   # C_2
 134 1 6   0.000000  10.350200  13.530195  17.521440   # C_2
 135 1 6   0.000000  10.350200  13.530195   3.179995   # C_2
 136 1 7   0.000000   4.243996   4.243996   0.000000   # C_R
 137 1 7   0.000000   0.000000   4.243996   4.243996   # C_R
 138 1 7   0.000000   4.243996  10.350200  14.594196   # C_R
 139 1 7   0.000000  16.457232  10.350200  14.594196   # C_R
 140 1 7   0.000000  16.457232  10.350200   6.107032   # C_R
 141 1 7   0.000000   4.243996  10.350200   6.107032   # C_R
 142 1 7   0.000000   4.243996  14.594196  10.350200   # C_R
 143 1 7   0.000000  16.457232  14.594196  10.350200   # C_R
 144 1 7   0.000000   0.000000   6.107032   6.107032   # C_R
 145 1 7   0.000000  14.594196  16.457232  10.350200   # C_R
 146 1 7   0.000000   6.107032  16.457232  10.350200   # C_R
 147 1 7   0.000000  10.350200  16.457232   6.107032   # C_R
 148 1 7   0.000000  10.350200  16.457232  14.594196   # C_R
 149 1 7   0.000000  14.594196  10.350200   4.243996   # C_R
 150 1 7   0.000000   6.107032  10.350200   4.243996   # C_R
 151 1 7   0.000000   6.107032  10.350200  16.457232   # C_R
 152 1 7   0.000000  14.594196  10.350200  16.457232   # C_R
 153 1 7   0.000000   6.107032   6.107032   0.000000   # C_R
 154 1 7   0.000000  10.350200  14.594196   4.243996   # C_R
 155 1 7   0.000000  10.350200  14.594196  16.457232   # C_R
 156 1 7   0.000000   3.817154   5.537150   0.000000   # C_R
 157 1 7   0.000000   0.000000   3.817154   5.537150   # C_R
 158 1 7   0.000000   0.000000   5.537150   3.817154   # C_R
 159 1 7   0.000000   5.537150   3.817154   0.000000   # C_R
 160 1 7   0.000000   5.537150  10.350200  14.167354   # C_R
 161 1 7   0.000000  15.163250  10.350200  14.167354   # C_R
 162 1 7   0.000000  15.163250  10.350200   6.533046   # C_R
 163 1 7   0.000000   5.537150  10.350200   6.533046   # C_R
 164 1 7   0.000000   3.817154  15.888385  10.350200   # C_R
 165 1 7   0.000000  16.883246  15.888385  10.350200   # C_R
 166 1 7   0.000000   0.000000   6.533046   4.813050   # C_R
 167 1 7   0.000000   0.000000   4.813050   6.533046   # C_R
 168 1 7   0.000000   5.537150  14.167354  10.350200   # C_R
 169 1 7   0.000000  15.163250  14.167354  10.350200   # C_R
 170 1 7   0.000000   3.817154  10.350200   4.813050   # C_R
 171 1 7   0.000000   3.817154  10.350200  15.888385   # C_R
 172 1 7   0.000000  16.883246  10.350200  15.888385   # C_R
 173 1 7   0.000000  16.883246  10.350200   4.813050   # C_R
 174 1 7   0.000000  14.167354  15.163250  10.350200   # C_R
 175 1 7   0.000000   6.533046  15.163250  10.350200   # C_R
 176 1 7   0.000000  10.350200  16.883246   4.813050   # C_R
 177 1 7   0.000000  10.350200  16.883246  15.888385   # C_R
 178 1 7   0.000000  10.350200  15.163250   6.533046   # C_R
 179 1 7   0.000000  10.350200  15.163250  14.167354   # C_R
 180 1 7   0.000000   4.813050  16.883246  10.350200   # C_R
 181 1 7   0.000000  15.888385  16.883246  10.350200   # C_R
 182 1 7   0.000000  15.888385  10.350200   3.817154   # C_R
 183 1 7   0.000000   4.813050  10.350200   3.817154   # C_R
 184 1 7   0.000000   4.813050  10.350200  16.883246   # C_R
 185 1 7   0.000000  15.888385  10.350200  16.883246   # C_R
 186 1 7   0.000000   6.533046   4.813050   0.000000   # C_R
 187 1 7   0.000000  10.350200  14.167354   5.537150   # C_R
 188 1 7   0.000000  10.350200  14.167354  15.163250   # C_R
 189 1 7   0.000000  10.350200  15.888385  16.883246   # C_R
 190 1 7   0.000000  10.350200  15.888385   3.817154   # C_R
 191 1 7   0.000000   4.813050   6.533046   0.000000   # C_R
 192 1 7   0.000000  14.167354  10.350200  15.163250   # C_R
 193 1 7   0.000000  14.167354  10.350200   5.537150   # C_R
 194 1 7   0.000000   6.533046  10.350200   5.537150   # C_R
 195 1 7   0.000000   6.533046  10.350200  15.163250   # C_R
 196 1 5   0.000000   2.812977   5.776033   0.000000   # H_
 197 1 5   0.000000   0.000000   2.812977   5.776033   # H_
 198 1 5   0.000000   0.000000   5.776033   2.812977   # H_
 199 1 5   0.000000   5.776033   2.812977   0.000000   # H_
 200 1 5   0.000000   5.776033  10.350200  13.163177   # H_
 201 1 5   0.000000  14.924367  10.350200  13.163177   # H_
 202 1 5   0.000000  14.924367  10.350200   7.537223   # H_
 203 1 5   0.000000   5.776033  10.350200   7.537223   # H_
 204 1 5   0.000000   2.812977  16.126233  10.350200   # H_
 205 1 5   0.000000  17.887423  16.126233  10.350200   # H_
 206 1 5   0.000000   0.000000   7.537223   4.574167   # H_
 207 1 5   0.000000   0.000000   4.574167   7.537223   # H_
 208 1 5   0.000000   5.776033  13.163177  10.350200   # H_
 209 1 5   0.000000  14.924367  13.163177  10.350200   # H_
 210 1 5   0.000000   2.812977  10.350200   4.574167   # H_
 211 1 5   0.000000   2.812977  10.350200  16.126233   # H_
 212 1 5   0.000000  17.887423  10.350200  16.126233   # H_
 213 1 5   0.000000  17.887423  10.350200   4.574167   # H_
 214 1 5   0.000000  13.163177  14.924367  10.350200   # H_
 215 1 5   0.000000   7.537223  14.924367  10.350200   # H_
 216 1 5   0.000000  10.350200  17.887423   4.574167   # H_
 217 1 5   0.000000  10.350200  17.887423  16.126233   # H_
 218 1 5   0.000000  10.350200  14.924367   7.537223   # H_
 219 1 5   0.000000  10.350200  14.924367  13.163177   # H_
 220 1 5   0.000000   4.574167  17.887423  10.350200   # H_
 221 1 5   0.000000  16.126233  17.887423  10.350200   # H_
 222 1 5   0.000000  16.126233  10.350200   2.812977   # H_
 223 1 5   0.000000   4.574167  10.350200   2.812977   # H_
 224 1 5   0.000000   4.574167  10.350200  17.887423   # H_
 225 1 5   0.000000  16.126233  10.350200  17.887423   # H_
 226 1 5   0.000000   7.537223   4.574167   0.000000   # H_
 227 1 5   0.000000  10.350200  13.163177   5.776033   # H_
 228 1 5   0.000000  10.350200  13.163177  14.924367   # H_
 229 1 5   0.000000  10.350200  16.126233  17.887423   # H_
 230 1 5   0.000000  10.350200  16.126233   2.812977   # H_
 231 1 5   0.000000   4.574167   7.537223   0.000000   # H_
 232 1 5   0.000000  13.163177  10.350200  14.924367   # H_
 233 1 5   0.000000  13.163177  10.350200   5.776033   # H_
 234 1 5   0.000000   7.537223  10.350200   5.776033   # H_
 235 1 5   0.000000   7.537223  10.350200  14.924367   # H_
 236 1 18   0.000000   0.000000  38.919650   0.000000   # Zr8f4
 237 1 18   0.000000  18.219250  31.050600  10.350200   # Zr8f4
 238 1 18   0.000000  12.832178  20.700400  10.350200   # Zr8f4
 239 1 18   0.000000   7.868222  20.700400  10.350200   # Zr8f4
 240 1 18   0.000000  10.350200  23.182378  10.350200   # Zr8f4
 241 1 18   0.000000  10.350200  38.919650  10.350200   # Zr8f4
 242 1 18   0.000000  10.350200  20.700400  12.832178   # Zr8f4
 243 1 18   0.000000  10.350200  20.700400   7.868222   # Zr8f4
 244 1 18   0.000000  10.350200  31.050600  18.219250   # Zr8f4
 245 1 16   0.000000  17.172431  20.700400  18.728273   # O_2_M
 246 1 16   0.000000   1.972955  37.872831   0.000000   # O_2_M
 247 1 16   0.000000  18.728273  37.872831   0.000000   # O_2_M
 248 1 16   0.000000   0.000000  39.428673  17.172431   # O_2_M
 249 1 16   0.000000   0.000000  39.428673   3.529004   # O_2_M
 250 1 16   0.000000   0.000000  37.872831  18.728273   # O_2_M
 251 1 16   0.000000   0.000000  37.872831   1.972955   # O_2_M
 252 1 16   0.000000  17.172431  39.428673   0.000000   # O_2_M
 253 1 16   0.000000   3.529004  39.428673   0.000000   # O_2_M
 254 1 16   0.000000  18.728273  20.700400  17.172431   # O_2_M
 255 1 16   0.000000  17.172431  31.050600  12.323155   # O_2_M
 256 1 16   0.000000  17.172431  31.050600   8.377245   # O_2_M
 257 1 16   0.000000  18.728273  27.521596  10.350200   # O_2_M
 258 1 16   0.000000  18.728273  34.579604  10.350200   # O_2_M
 259 1 16   0.000000  17.172431  33.023555  10.350200   # O_2_M
 260 1 16   0.000000  17.172431  29.077645  10.350200   # O_2_M
 261 1 16   0.000000  18.728273  31.050600  13.879204   # O_2_M
 262 1 16   0.000000  18.728273  31.050600   6.821196   # O_2_M
 263 1 16   0.000000  13.879204  20.700400  12.323155   # O_2_M
 264 1 16   0.000000   6.821196  20.700400  12.323155   # O_2_M
 265 1 16   0.000000   6.821196  20.700400   8.377245   # O_2_M
 266 1 16   0.000000  13.879204  20.700400   8.377245   # O_2_M
 267 1 16   0.000000  12.323155  24.229404  10.350200   # O_2_M
 268 1 16   0.000000  12.323155  37.872831  10.350200   # O_2_M
 269 1 16   0.000000   8.377245  37.872831  10.350200   # O_2_M
 270 1 16   0.000000   8.377245  24.229404  10.350200   # O_2_M
 271 1 16   0.000000  10.350200  22.673355  13.879204   # O_2_M
 272 1 16   0.000000  10.350200  22.673355   6.821196   # O_2_M
 273 1 16   0.000000  10.350200  39.428673   6.821196   # O_2_M
 274 1 16   0.000000  10.350200  39.428673  13.879204   # O_2_M
 275 1 16   0.000000  10.350200  24.229404   8.377245   # O_2_M
 276 1 16   0.000000  10.350200  37.872831   8.377245   # O_2_M
 277 1 16   0.000000  10.350200  37.872831  12.323155   # O_2_M
 278 1 16   0.000000  10.350200  24.229404  12.323155   # O_2_M
 279 1 16   0.000000  13.879204  22.673355  10.350200   # O_2_M
 280 1 16   0.000000   6.821196  22.673355  10.350200   # O_2_M
 281 1 16   0.000000   6.821196  39.428673  10.350200   # O_2_M
 282 1 16   0.000000  13.879204  39.428673  10.350200   # O_2_M
 283 1 16   0.000000  12.323155  20.700400   6.821196   # O_2_M
 284 1 16   0.000000  12.323155  20.700400  13.879204   # O_2_M
 285 1 16   0.000000   8.377245  20.700400  13.879204   # O_2_M
 286 1 16   0.000000   8.377245  20.700400   6.821196   # O_2_M
 287 1 16   0.000000   6.821196  31.050600  18.728273   # O_2_M
 288 1 16   0.000000  13.879204  31.050600  18.728273   # O_2_M
 289 1 16   0.000000  10.350200  33.023555  17.172431   # O_2_M
 290 1 16   0.000000  10.350200  29.077645  17.172431   # O_2_M
 291 1 16   0.000000  10.350200  34.579604  18.728273   # O_2_M
 292 1 16   0.000000  10.350200  27.521596  18.728273   # O_2_M
 293 1 16   0.000000  12.323155  31.050600  17.172431   # O_2_M
 294 1 16   0.000000   8.377245  31.050600  17.172431   # O_2_M
 295 1 17   0.000000   1.161085  40.239715  19.539315   # O_3_f
 296 1 17   0.000000  19.539315  21.861485  19.539315   # O_3_f
 297 1 17   0.000000  19.539315  40.239715   1.161085   # O_3_f
 298 1 17   0.000000   1.161085  40.239715   1.161085   # O_3_f
 299 1 17   0.000000  19.539315  40.239715  19.539315   # O_3_f
 300 1 17   0.000000  19.539315  32.211685   9.189115   # O_3_f
 301 1 17   0.000000  19.539315  29.889515  11.511285   # O_3_f
 302 1 17   0.000000  19.539315  32.211685  11.511285   # O_3_f
 303 1 17   0.000000  19.539315  29.889515   9.189115   # O_3_f
 304 1 17   0.000000  11.511285  40.239715   9.189115   # O_3_f
 305 1 17   0.000000   9.189115  21.861485   9.189115   # O_3_f
 306 1 17   0.000000   9.189115  40.239715  11.511285   # O_3_f
 307 1 17   0.000000  11.511285  21.861485  11.511285   # O_3_f
 308 1 17   0.000000   9.189115  21.861485  11.511285   # O_3_f
 309 1 17   0.000000  11.511285  40.239715  11.511285   # O_3_f
 310 1 17   0.000000   9.189115  40.239715   9.189115   # O_3_f
 311 1 17   0.000000  11.511285  21.861485   9.189115   # O_3_f
 312 1 17   0.000000  11.511285  29.889515  19.539315   # O_3_f
 313 1 17   0.000000   9.189115  32.211685  19.539315   # O_3_f
 314 1 17   0.000000   9.189115  29.889515  19.539315   # O_3_f
 315 1 17   0.000000  11.511285  32.211685  19.539315   # O_3_f
 316 1 6   0.000000  17.521440  20.700400  17.521440   # C_2
 317 1 13   0.000000  17.521440  38.221840   0.000000   # C_2
 318 1 13   0.000000   3.179995  38.221840   0.000000   # C_2
 319 1 13   0.000000   0.000000  38.221840   3.179995   # C_2
 320 1 13   0.000000   0.000000  38.221840  17.521440   # C_2
 321 1 13   0.000000  17.521440  31.050600   7.171240   # C_2
 322 1 6   0.000000  17.521440  31.050600  13.530195   # C_2
 323 1 6   0.000000  17.521440  34.230595  10.350200   # C_2
 324 1 6   0.000000  17.521440  27.871640  10.350200   # C_2
 325 1 13   0.000000  13.530195  20.700400   7.171240   # C_2
 326 1 13   0.000000   7.171240  20.700400   7.171240   # C_2
 327 1 13   0.000000   7.171240  20.700400  13.530195   # C_2
 328 1 6   0.000000  13.530195  20.700400  13.530195   # C_2
 329 1 13   0.000000   7.171240  23.880395  10.350200   # C_2
 330 1 13   0.000000   7.171240  38.221840  10.350200   # C_2
 331 1 6   0.000000  13.530195  38.221840  10.350200   # C_2
 332 1 6   0.000000  13.530195  23.880395  10.350200   # C_2
 333 1 6   0.000000  10.350200  38.221840  13.530195   # C_2
 334 1 13   0.000000  10.350200  38.221840   7.171240   # C_2
 335 1 13   0.000000  10.350200  23.880395   7.171240   # C_2
 336 1 6   0.000000  10.350200  23.880395  13.530195   # C_2
 337 1 6   0.000000  13.530195  31.050600  17.521440   # C_2
 338 1 13   0.000000   7.171240  31.050600  17.521440   # C_2
 339 1 6   0.000000  10.350200  27.871640  17.521440   # C_2
 340 1 6   0.000000  10.350200  34.230595  17.521440   # C_2
 341 1 7   0.000000  16.457232  20.700400  16.457232   # C_R
 342 1 7   0.000000  16.457232  31.050600  14.594196   # C_R
 343 1 7   0.000000  16.457232  26.807432  10.350200   # C_R
 344 1 7   0.000000  16.457232  35.294596  10.350200   # C_R
 345 1 7   0.000000  14.594196  20.700400  14.594196   # C_R
 346 1 7   0.000000  14.594196  24.944396  10.350200   # C_R
 347 1 7   0.000000  14.594196  37.157632  10.350200   # C_R
 348 1 7   0.000000  10.350200  24.944396  14.594196   # C_R
 349 1 7   0.000000  10.350200  37.157632  14.594196   # C_R
 350 1 7   0.000000  14.594196  31.050600  16.457232   # C_R
 351 1 7   0.000000  10.350200  35.294596  16.457232   # C_R
 352 1 7   0.000000  10.350200  26.807432  16.457232   # C_R
 353 1 7   0.000000  15.163250  20.700400  16.883246   # C_R
 354 1 7   0.000000  16.883246  20.700400  15.163250   # C_R
 355 1 7   0.000000  15.163250  31.050600  14.167354   # C_R
 356 1 7   0.000000  16.883246  25.513450  10.350200   # C_R
 357 1 7   0.000000  16.883246  36.588785  10.350200   # C_R
 358 1 7   0.000000  15.163250  34.867754  10.350200   # C_R
 359 1 7   0.000000  15.163250  27.233446  10.350200   # C_R
 360 1 7   0.000000  16.883246  31.050600  15.888385   # C_R
 361 1 7   0.000000  15.888385  20.700400  14.167354   # C_R
 362 1 7   0.000000  14.167354  26.237550  10.350200   # C_R
 363 1 7   0.000000  14.167354  35.863650  10.350200   # C_R
 364 1 7   0.000000  10.350200  24.517554  15.888385   # C_R
 365 1 7   0.000000  10.350200  37.583646  15.888385   # C_R
 366 1 7   0.000000  10.350200  35.863650  14.167354   # C_R
 367 1 7   0.000000  10.350200  26.237550  14.167354   # C_R
 368 1 7   0.000000  15.888385  24.517554  10.350200   # C_R
 369 1 7   0.000000  15.888385  37.583646  10.350200   # C_R
 370 1 7   0.000000  14.167354  20.700400  15.888385   # C_R
 371 1 7   0.000000  15.888385  31.050600  16.883246   # C_R
 372 1 7   0.000000  10.350200  34.867754  15.163250   # C_R
 373 1 7   0.000000  10.350200  27.233446  15.163250   # C_R
 374 1 7   0.000000  10.350200  36.588785  16.883246   # C_R
 375 1 7   0.000000  10.350200  25.513450  16.883246   # C_R
 376 1 7   0.000000  14.167354  31.050600  15.163250   # C_R
 377 1 5   0.000000  14.924367  20.700400  17.887423   # H_
 378 1 5   0.000000  17.887423  20.700400  14.924367   # H_
 379 1 5   0.000000  14.924367  31.050600  13.163177   # H_
 380 1 5   0.000000  17.887423  25.274567  10.350200   # H_
 381 1 5   0.000000  17.887423  36.826633  10.350200   # H_
 382 1 5   0.000000  14.924367  33.863577  10.350200   # H_
 383 1 5   0.000000  14.924367  28.237623  10.350200   # H_
 384 1 5   0.000000  17.887423  31.050600  16.126233   # H_
 385 1 5   0.000000  16.126233  20.700400  13.163177   # H_
 386 1 5   0.000000  13.163177  26.476433  10.350200   # H_
 387 1 5   0.000000  13.163177  35.624767  10.350200   # H_
 388 1 5   0.000000  10.350200  23.513377  16.126233   # H_
 389 1 5   0.000000  10.350200  38.587823  16.126233   # H_
 390 1 5   0.000000  10.350200  35.624767  13.163177   # H_
 391 1 5   0.000000  10.350200  26.476433  13.163177   # H_
 392 1 5   0.000000  16.126233  23.513377  10.350200   # H_
 393 1 5   0.000000  16.126233  38.587823  10.350200   # H_
 394 1 5   0.000000  13.163177  20.700400  16.126233   # H_
 395 1 5   0.000000  16.126233  31.050600  17.887423   # H_
 396 1 5   0.000000  10.350200  33.863577  14.924367   # H_
 397 1 5   0.000000  10.350200  28.237623  14.924367   # H_
 398 1 5   0.000000  10.350200  36.826633  17.887423   # H_
 399 1 5   0.000000  10.350200  25.274567  17.887423   # H_
 400 1 5   0.000000  13.163177  31.050600  14.924367   # H_
 401 1 18   0.000000   2.481978  41.400800   0.000000   # Zr8f4
 402 1 18   0.000000  18.219250  41.400800   0.000000   # Zr8f4
 403 1 18   0.000000   0.000000  43.882778   0.000000   # Zr8f4
 404 1 18   0.000000   0.000000  59.620050   0.000000   # Zr8f4
 405 1 18   0.000000   0.000000  41.400800   2.481978   # Zr8f4
 406 1 18   0.000000   0.000000  41.400800  18.219250   # Zr8f4
 407 1 18   0.000000   2.481978  51.751000  10.350200   # Zr8f4
 408 1 18   0.000000  18.219250  51.751000  10.350200   # Zr8f4
 409 1 18   0.000000   0.000000  54.232978  10.350200   # Zr8f4
 410 1 18   0.000000   0.000000  49.269022  10.350200   # Zr8f4
 411 1 18   0.000000   0.000000  51.751000  12.832178   # Zr8f4
 412 1 18   0.000000   0.000000  51.751000   7.868222   # Zr8f4
 413 1 18   0.000000  12.832178  41.400800  10.350200   # Zr8f4
 414 1 18   0.000000   7.868222  41.400800  10.350200   # Zr8f4
 415 1 18   0.000000  10.350200  43.882778  10.350200   # Zr8f4
 416 1 18   0.000000  10.350200  41.400800  12.832178   # Zr8f4
 417 1 18   0.000000  10.350200  41.400800   7.868222   # Zr8f4
 418 1 18   0.000000  12.832178  51.751000   0.000000   # Zr8f4
 419 1 18   0.000000   7.868222  51.751000   0.000000   # Zr8f4
 420 1 18   0.000000  10.350200  54.232978   0.000000   # Zr8f4
 421 1 18   0.000000  10.350200  49.269022   0.000000   # Zr8f4
 422 1 18   0.000000  10.350200  51.751000   2.481978   # Zr8f4
 423 1 18   0.000000  10.350200  51.751000  18.219250   # Zr8f4
 424 1 16   0.000000   3.529004  41.400800   1.972955   # O_2_M
 425 1 16   0.000000  17.172431  41.400800   1.972955   # O_2_M
 426 1 16   0.000000  17.172431  41.400800  18.728273   # O_2_M
 427 1 16   0.000000   3.529004  41.400800  18.728273   # O_2_M
 428 1 16   0.000000   1.972955  44.929804   0.000000   # O_2_M
 429 1 16   0.000000   1.972955  58.573231   0.000000   # O_2_M
 430 1 16   0.000000  18.728273  44.929804   0.000000   # O_2_M
 431 1 16   0.000000   0.000000  43.373755   3.529004   # O_2_M
 432 1 16   0.000000   0.000000  43.373755  17.172431   # O_2_M
 433 1 16   0.000000   0.000000  60.129073   3.529004   # O_2_M
 434 1 16   0.000000   0.000000  44.929804  18.728273   # O_2_M
 435 1 16   0.000000   0.000000  58.573231   1.972955   # O_2_M
 436 1 16   0.000000   0.000000  44.929804   1.972955   # O_2_M
 437 1 16   0.000000   3.529004  43.373755   0.000000   # O_2_M