 (written by mofun)

11826 atoms
15360 bonds
38736 angles
24552 dihedrals
0 impropers

18 atom types
10 bond types
13 angle types
8 dihedral types
   0.000000  62.101200 xlo xhi
   0.000000  62.101200 ylo yhi
   0.000000  62.101200 zlo zhi

Masses

 1  91.224000   # Zr3+4
 2  15.999400   # O_3
 3  12.010700   # C_3
 4   1.007940   # H_
 5   1.007940   # H_
 6  12.010700   # C_2
 7  12.010700   # C_R
 8  15.999400   # O_2_M
 9  91.224000   # Zr8f4
 10   1.007940   # H
 11  10.811000   # B
 12   1.007940   # H_
 13  12.010700   # C_2
 14  15.999400   # O_2_M
 15   1.007940   # H_
 16  15.999400   # O_2_M
 17  15.999400   # O_3_f
 18  91.224000   # Zr8f4

Pair Coeffs

1   0.069000   2.783168 # Zr3+4
2   0.060000   3.118146 # O_3
3   0.105000   3.430851 # C_3
4   0.044000   2.571134 # H_
5 0.044000 2.571134   # H_
6 0.105000 3.430851   # C_2
7 0.105000 3.430851   # C_R
8 0.060000 3.118146   # O_2_M
9 0.069000 2.783168   # Zr8f4
10 0.044000 2.571134   # H_
11 0.044000 2.571134   # H_
12 0.044000 2.571134   # H_
13 0.105000 3.430851   # C_2
14 0.060000 3.118146   # O_2_M
15 0.044000 2.571134   # H_
16 0.060000 3.118146   # O_2_M
17 0.060000 3.118146   # O_3_f
18 0.069000 2.783168   # Zr8f4

Bond Coeffs

 1 199.942436 2.410484   # O_2_M Zr8f4
 2 462.655054 1.379256   # C_R C_R
 3 389.261715 1.461000   # C_2 C_R
 4 709.805345 1.271799   # C_2 O_2_M
 5 357.440381 1.081418   # C_R H_
 6 354.483902 1.084416   # C_2 H_
 7 709.805345 1.271799   # C_2 O_2_M
 8 199.959824 2.410484   # O_3_f Zr8f4
 9 199.942436 2.410484   # O_2_M Zr8f4
 10 602.435128 0.966432   # H_ O_3_f

Angle Coeffs

 1 cosine/periodic  79.266221  -1  3   # C_2 O_2_M Zr8f4
 2 cosine/periodic  101.852144  -1  3   # C_2 C_R C_R
 3 cosine/periodic  111.297508  -1  3   # C_R C_R C_R
 4 cosine/periodic  57.289016  -1  3   # C_R C_R H_
 5 cosine/periodic  136.830763  -1  3   # C_R C_2 O_2_M
 6 cosine/periodic  205.385405  -1  3   # O_2_M C_2 O_2_M
 7 cosine/periodic  79.339562  -1  3   # H_ C_2 O_2_M
 8 cosine/periodic  205.385405  -1  3   # O_2_M C_2 O_2_M
 9 fourier  76.804805  0.343737  0.374972  0.281246   # O_3_f Zr8f4 O_3_f
 10 fourier  76.798126  0.343737  0.374972  0.281246   # O_2_M Zr8f4 O_3_f
 11 fourier  76.791448  0.343737  0.374972  0.281246   # O_2_M Zr8f4 O_2_M
 12 fourier  195.233589  0.343737  0.374972  0.281246   # Zr8f4 O_3_f Zr8f4
 13 fourier  78.498356  0.343737  0.374972  0.281246   # H_ O_3_f Zr8f4

Dihedral Coeffs

 1 6.737110 -1 2   # C_R C_2 O_2_M Zr8f4 M=2
 2 6.737110 -1 2   # O_2_M C_2 O_2_M Zr8f4 M=2
 3 3.368555 -1 2   # C_2 C_R C_R C_R M=4
 4 3.368555 -1 2   # C_2 C_R C_R H_ M=4
 5 3.368555 -1 2   # C_R C_R C_R C_R M=4
 6 3.368555 -1 2   # C_R C_R C_R H_ M=4
 7 1.250000 -1 2   # C_R C_R C_2 O_2_M M=4
 8 3.368555 -1 2   # H_ C_R C_R H_ M=4

Atoms

 1 1 18   0.000000   2.481978   0.000000   0.000000   # Zr8f4
 2 1 18   0.000000  18.219250   0.000000   0.000000   # Zr8f4
 3 1 18   0.000000   0.000000   2.481978   0.000000   # Zr8f4
 4 1 18   0.000000   0.000000  18.219250   0.000000   # Zr8f4
 5 1 18   0.000000   0.000000   0.000000   2.481978   # Zr8f4
 6 1 18   0.000000   0.000000   0.000000  18.219250   # Zr8f4
 7 1 18   0.000000   2.481978  10.350200  10.350200   # Zr8f4
 8 1 18   0.000000  18.219250  10.350200  10.350200   # Zr8f4
 9 1 18   0.000000   0.000000  12.832178  10.350200   # Zr8f4
 10 1 18   0.000000   0.000000   7.868222  10.350200   # Zr8f4
 11 1 18   0.000000   0.000000  10.350200  12.832178   # Zr8f4
 12 1 18   0.000000   0.000000  10.350200   7.868222   # Zr8f4
 13 1 18   0.000000  12.832178   0.000000  10.350200   # Zr8f4
 14 1 18   0.000000   7.868222   0.000000  10.350200   # Zr8f4
 15 1 18   0.000000  10.350200   2.481978  10.350200   # Zr8f4
 16 1 18   0.000000  10.350200  18.219250  10.350200   # Zr8f4
 17 1 18   0.000000  10.350200   0.000000  12.832178   # Zr8f4
 18 1 18   0.000000  10.350200   0.000000   7.868222   # Zr8f4
 19 1 18   0.000000  12.832178  10.350200   0.000000   # Zr8f4
 20 1 18   0.000000   7.868222  10.350200   0.000000   # Zr8f4
 21 1 18   0.000000  10.350200  12.832178   0.000000   # Zr8f4
 22 1 18   0.000000  10.350200   7.868222   0.000000   # Zr8f4
 23 1 18   0.000000  10.350200  10.350200   2.481978   # Zr8f4
 24 1 18   0.000000  10.350200  10.350200  18.219250   # Zr8f4
 25 1 16   0.000000   3.529004   0.000000   1.972955   # O_2_M
 26 1 16   0.000000  17.172431   0.000000   1.972955   # O_2_M
 27 1 16   0.000000  17.172431   0.000000  18.728273   # O_2_M
 28 1 16   0.000000   3.529004   0.000000  18.728273   # O_2_M
 29 1 16   0.000000   1.972955   3.529004   0.000000   # O_2_M
 30 1 16   0.000000   1.972955  17.172431   0.000000   # O_2_M
 31 1 16   0.000000  18.728273  17.172431   0.000000   # O_2_M
 32 1 16   0.000000  18.728273   3.529004   0.000000   # O_2_M
 33 1 16   0.000000   0.000000   1.972955   3.529004   # O_2_M
 34 1 16   0.000000   0.000000   1.972955  17.172431   # O_2_M
 35 1 16   0.000000   0.000000  18.728273  17.172431   # O_2_M
 36 1 16   0.000000   0.000000  18.728273   3.529004   # O_2_M
 37 1 16   0.000000   0.000000   3.529004  18.728273   # O_2_M
 38 1 16   0.000000   0.000000  17.172431  18.728273   # O_2_M
 39 1 16   0.000000   0.000000  17.172431   1.972955   # O_2_M
 40 1 16   0.000000   0.000000   3.529004   1.972955   # O_2_M
 41 1 16   0.000000   3.529004   1.972955   0.000000   # O_2_M
 42 1 16   0.000000  17.172431   1.972955   0.000000   # O_2_M
 43 1 16   0.000000  17.172431  18.728273   0.000000   # O_2_M
 44 1 16   0.000000   3.529004  18.728273   0.000000   # O_2_M
 45 1 16   0.000000   1.972955   0.000000  17.172431   # O_2_M
 46 1 16   0.000000   1.972955   0.000000   3.529004   # O_2_M
 47 1 16   0.000000  18.728273   0.000000   3.529004   # O_2_M
 48 1 16   0.000000  18.728273   0.000000  17.172431   # O_2_M
 49 1 16   0.000000   3.529004  10.350200  12.323155   # O_2_M
 50 1 16   0.000000  17.172431  10.350200  12.323155   # O_2_M
 51 1 16   0.000000  17.172431  10.350200   8.377245   # O_2_M
 52 1 16   0.000000   3.529004  10.350200   8.377245   # O_2_M
 53 1 16   0.000000   1.972955  13.879204  10.350200   # O_2_M
 54 1 16   0.000000   1.972955   6.821196  10.350200   # O_2_M
 55 1 16   0.000000  18.728273   6.821196  10.350200   # O_2_M
 56 1 16   0.000000  18.728273  13.879204  10.350200   # O_2_M
 57 1 16   0.000000   0.000000  12.323155  13.879204   # O_2_M
 58 1 16   0.000000   0.000000  12.323155   6.821196   # O_2_M
 59 1 16   0.000000   0.000000   8.377245   6.821196   # O_2_M
 60 1 16   0.000000   0.000000   8.377245  13.879204   # O_2_M
 61 1 16   0.000000   0.000000  13.879204   8.377245   # O_2_M
 62 1 16   0.000000   0.000000   6.821196   8.377245   # O_2_M
 63 1 16   0.000000   0.000000   6.821196  12.323155   # O_2_M
 64 1 16   0.000000   0.000000  13.879204  12.323155   # O_2_M
 65 1 16   0.000000   3.529004  12.323155  10.350200   # O_2_M
 66 1 16   0.000000  17.172431  12.323155  10.350200   # O_2_M
 67 1 16   0.000000  17.172431   8.377245  10.350200   # O_2_M
 68 1 16   0.000000   3.529004   8.377245  10.350200   # O_2_M
 69 1 16   0.000000   1.972955  10.350200   6.821196   # O_2_M
 70 1 16   0.000000   1.972955  10.350200  13.879204   # O_2_M
 71 1 16   0.000000  18.728273  10.350200  13.879204   # O_2_M
 72 1 16   0.000000  18.728273  10.350200   6.821196   # O_2_M
 73 1 16   0.000000  13.879204   0.000000  12.323155   # O_2_M
 74 1 16   0.000000   6.821196   0.000000  12.323155   # O_2_M
 75 1 16   0.000000   6.821196   0.000000   8.377245   # O_2_M
 76 1 16   0.000000  13.879204   0.000000   8.377245   # O_2_M
 77 1 16   0.000000  12.323155   3.529004  10.350200   # O_2_M
 78 1 16   0.000000  12.323155  17.172431  10.350200   # O_2_M
 79 1 16   0.000000   8.377245  17.172431  10.350200   # O_2_M
 80 1 16   0.000000   8.377245   3.529004  10.350200   # O_2_M
 81 1 16   0.000000  10.350200   1.972955  13.879204   # O_2_M
 82 1 16   0.000000  10.350200   1.972955   6.821196   # O_2_M
 83 1 16   0.000000  10.350200  18.728273   6.821196   # O_2_M
 84 1 16   0.000000  10.350200  18.728273  13.879204   # O_2_M
 85 1 16   0.000000  10.350200   3.529004   8.377245   # O_2_M
 86 1 16   0.000000  10.350200  17.172431   8.377245   # O_2_M
 87 1 16   0.000000  10.350200  17.172431  12.323155   # O_2_M
 88 1 16   0.000000  10.350200   3.529004  12.323155   # O_2_M
 89 1 16   0.000000  13.879204   1.972955  10.350200   # O_2_M
 90 1 16   0.000000   6.821196   1.972955  10.350200   # O_2_M
 91 1 16   0.000000   6.821196  18.728273  10.350200   # O_2_M
 92 1 16   0.000000  13.879204  18.728273  10.350200   # O_2_M
 93 1 16   0.000000  12.323155   0.000000   6.821196   # O_2_M
 94 1 16   0.000000  12.323155   0.000000  13.879204   # O_2_M
 95 1 16   0.000000   8.377245   0.000000  13.879204   # O_2_M
 96 1 16   0.000000   8.377245   0.000000   6.821196   # O_2_M
 97 1 16   0.000000  13.879204  10.350200   1.972955   # O_2_M
 98 1 16   0.000000   6.821196  10.350200   1.972955   # O_2_M
 99 1 16   0.000000   6.821196  10.350200  18.728273   # O_2_M
 100 1 16   0.000000  13.879204  10.350200  18.728273   # O_2_M
 101 1 16   0.000000  12.323155  13.879204   0.000000   # O_2_M
 102 1 16   0.000000  12.323155   6.821196   0.000000   # O_2_M
 103 1 16   0.000000   8.377245   6.821196   0.000000   # O_2_M
 104 1 16   0.000000   8.377245  13.879204   0.000000   # O_2_M
 105 1 16   0.000000  10.350200  12.323155   3.529004   # O_2_M
 106 1 16   0.000000  10.350200  12.323155  17.172431   # O_2_M
 107 1 16   0.000000  10.350200   8.377245  17.172431   # O_2_M
 108 1 16   0.000000  10.350200   8.377245   3.529004   # O_2_M
 109 1 16   0.000000  10.350200  13.879204  18.728273   # O_2_M
 110 1 16   0.000000  10.350200   6.821196  18.728273   # O_2_M
 111 1 16   0.000000  10.350200   6.821196   1.972955   # O_2_M
 112 1 16   0.000000  10.350200  13.879204   1.972955   # O_2_M
 113 1 16   0.000000  13.879204  12.323155   0.000000   # O_2_M
 114 1 16   0.000000   6.821196  12.323155   0.000000   # O_2_M
 115 1 16   0.000000   6.821196   8.377245   0.000000   # O_2_M
 116 1 16   0.000000  13.879204   8.377245   0.000000   # O_2_M
 117 1 16   0.000000  12.323155  10.350200  17.172431   # O_2_M
 118 1 16   0.000000  12.323155  10.350200   3.529004   # O_2_M
 119 1 16   0.000000   8.377245  10.350200   3.529004   # O_2_M
 120 1 16   0.000000   8.377245  10.350200  17.172431   # O_2_M
 121 1 17   0.000000   1.161085  19.539315  19.539315   # O_3_f
 122 1 17   0.000000  19.539315   1.161085  19.539315   # O_3_f
 123 1 17   0.000000  19.539315  19.539315   1.161085   # O_3_f
 124 1 17   0.000000   1.161085   1.161085   1.161085   # O_3_f
 125 1 17   0.000000  19.539315   1.161085   1.161085   # O_3_f
 126 1 17   0.000000   1.161085  19.539315   1.161085   # O_3_f
 127 1 17   0.000000  19.539315  19.539315  19.539315   # O_3_f
 128 1 17   0.000000   1.161085   1.161085  19.539315   # O_3_f
 129 1 17   0.000000   1.161085   9.189115   9.189115   # O_3_f
 130 1 17   0.000000  19.539315  11.511285   9.189115   # O_3_f
 131 1 17   0.000000  19.539315   9.189115  11.511285   # O_3_f
 132 1 17   0.000000   1.161085  11.511285  11.511285   # O_3_f
 133 1 17   0.000000  19.539315  11.511285  11.511285   # O_3_f
 134 1 17   0.000000   1.161085   9.189115  11.511285   # O_3_f
 135 1 17   0.000000  19.539315   9.189115   9.189115   # O_3_f
 136 1 17   0.000000   1.161085  11.511285   9.189115   # O_3_f
 137 1 17   0.000000  11.511285  19.539315   9.189115   # O_3_f
 138 1 17   0.000000   9.189115   1.161085   9.189115   # O_3_f
 139 1 17   0.000000   9.189115  19.539315  11.511285   # O_3_f
 140 1 17   0.000000  11.511285   1.161085  11.511285   # O_3_f
 141 1 17   0.000000   9.189115   1.161085  11.511285   # O_3_f
 142 1 17   0.000000  11.511285  19.539315  11.511285   # O_3_f
 143 1 17   0.000000   9.189115  19.539315   9.189115   # O_3_f
 144 1 17   0.000000  11.511285   1.161085   9.189115   # O_3_f
 145 1 17   0.000000  11.511285   9.189115  19.539315   # O_3_f
 146 1 17   0.000000   9.189115  11.511285  19.539315   # O_3_f
 147 1 17   0.000000   9.189115   9.189115   1.161085   # O_3_f
 148 1 17   0.000000  11.511285  11.511285   1.161085   # O_3_f
 149 1 17   0.000000   9.189115  11.511285   1.161085   # O_3_f
 150 1 17   0.000000  11.511285   9.189115   1.161085   # O_3_f
 151 1 17   0.000000   9.189115   9.189115  19.539315   # O_3_f
 152 1 17   0.000000  11.511285  11.511285  19.539315   # O_3_f
 153 1 6   0.000000   3.179995   0.000000  17.521440   # C_2
 154 1 6   0.000000  17.521440   0.000000  17.521440   # C_2
 155 1 6   0.000000  17.521440   0.000000   3.179995   # C_2
 156 1 6   0.000000   3.179995   0.000000   3.179995   # C_2
 157 1 6   0.000000  17.521440   3.179995   0.000000   # C_2
 158 1 6   0.000000  17.521440  17.521440   0.000000   # C_2
 159 1 6   0.000000   3.179995  17.521440   0.000000   # C_2
 160 1 6   0.000000   3.179995   3.179995   0.000000   # C_2
 161 1 6   0.000000   0.000000  17.521440   3.179995   # C_2
 162 1 6   0.000000   0.000000  17.521440  17.521440   # C_2
 163 1 6   0.000000   0.000000   3.179995  17.521440   # C_2
 164 1 6   0.000000   0.000000   3.179995   3.179995   # C_2
 165 1 6   0.000000   3.179995  10.350200   7.171240   # C_2
 166 1 6   0.000000  17.521440  10.350200   7.171240   # C_2
 167 1 6   0.000000  17.521440  10.350200  13.530195   # C_2
 168 1 6   0.000000   3.179995  10.350200  13.530195   # C_2
 169 1 6   0.000000  17.521440  13.530195  10.350200   # C_2
 170 1 6   0.000000  17.521440   7.171240  10.350200   # C_2
 171 1 6   0.000000   3.179995   7.171240  10.350200   # C_2
 172 1 6   0.000000   3.179995  13.530195  10.350200   # C_2
 173 1 6   0.000000   0.000000   7.171240  13.530195   # C_2
 174 1 6   0.000000   0.000000   7.171240   7.171240   # C_2
 175 1 6   0.000000   0.000000  13.530195   7.171240   # C_2
 176 1 6   0.000000   0.000000  13.530195  13.530195   # C_2
 177 1 6   0.000000  13.530195   0.000000   7.171240   # C_2
 178 1 6   0.000000   7.171240   0.000000   7.171240   # C_2
 179 1 6   0.000000   7.171240   0.000000  13.530195   # C_2
 180 1 6   0.000000  13.530195   0.000000  13.530195   # C_2
 181 1 6   0.000000   7.171240   3.179995  10.350200   # C_2
 182 1 6   0.000000   7.171240  17.521440  10.350200   # C_2
 183 1 6   0.000000  13.530195  17.521440  10.350200   # C_2
 184 1 6   0.000000  13.530195   3.179995  10.350200   # C_2
 185 1 6   0.000000  10.350200  17.521440  13.530195   # C_2
 186 1 6   0.000000  10.350200  17.521440   7.171240   # C_2
 187 1 6   0.000000  10.350200   3.179995   7.171240   # C_2
 188 1 6   0.000000  10.350200   3.179995  13.530195   # C_2
 189 1 6   0.000000  13.530195  10.350200  17.521440   # C_2
 190 1 6   0.000000   7.171240  10.350200  17.521440   # C_2
 191 1 6   0.000000   7.171240  10.350200   3.179995   # C_2
 192 1 6   0.000000  13.530195  10.350200   3.179995   # C_2
 193 1 6   0.000000   7.171240  13.530195   0.000000   # C_2
 194 1 6   0.000000   7.171240   7.171240   0.000000   # C_2
 195 1 6   0.000000  13.530195   7.171240   0.000000   # C_2
 196 1 6   0.000000  13.530195  13.530195   0.000000   # C_2
 197 1 6   0.000000  10.350200   7.171240   3.179995   # C_2
 198 1 6   0.000000  10.350200   7.171240  17.521440   # C_2
 199 1 6   0.000000  10.350200  13.530195  17.521440   # C_2
 200 1 6   0.000000  10.350200  13.530195   3.179995   # C_2
 201 1 7   0.000000   4.243996   0.000000   4.243996   # C_R
 202 1 7   0.000000  16.457232   0.000000   4.243996   # C_R
 203 1 7   0.000000  16.457232   0.000000  16.457232   # C_R
 204 1 7   0.000000   4.243996   0.000000  16.457232   # C_R
 205 1 7   0.000000   4.243996   4.243996   0.000000   # C_R
 206 1 7   0.000000   4.243996  16.457232   0.000000   # C_R
 207 1 7   0.000000  16.457232  16.457232   0.000000   # C_R
 208 1 7   0.000000  16.457232   4.243996   0.000000   # C_R
 209 1 7   0.000000   0.000000   4.243996   4.243996   # C_R
 210 1 7   0.000000   0.000000   4.243996  16.457232   # C_R
 211 1 7   0.000000   0.000000  16.457232  16.457232   # C_R
 212 1 7   0.000000   0.000000  16.457232   4.243996   # C_R
 213 1 7   0.000000   4.243996  10.350200  14.594196   # C_R
 214 1 7   0.000000  16.457232  10.350200  14.594196   # C_R
 215 1 7   0.000000  16.457232  10.350200   6.107032   # C_R
 216 1 7   0.000000   4.243996  10.350200   6.107032   # C_R
 217 1 7   0.000000   4.243996  14.594196  10.350200   # C_R
 218 1 7   0.000000   4.243996   6.107032  10.350200   # C_R
 219 1 7   0.000000  16.457232   6.107032  10.350200   # C_R
 220 1 7   0.000000  16.457232  14.594196  10.350200   # C_R
 221 1 7   0.000000   0.000000  14.594196  14.594196   # C_R
 222 1 7   0.000000   0.000000  14.594196   6.107032   # C_R
 223 1 7   0.000000   0.000000   6.107032   6.107032   # C_R
 224 1 7   0.000000   0.000000   6.107032  14.594196   # C_R
 225 1 7   0.000000  14.594196   0.000000  14.594196   # C_R
 226 1 7   0.000000   6.107032   0.000000  14.594196   # C_R
 227 1 7   0.000000   6.107032   0.000000   6.107032   # C_R
 228 1 7   0.000000  14.594196   0.000000   6.107032   # C_R
 229 1 7   0.000000  14.594196   4.243996  10.350200   # C_R
 230 1 7   0.000000  14.594196  16.457232  10.350200   # C_R
 231 1 7   0.000000   6.107032  16.457232  10.350200   # C_R
 232 1 7   0.000000   6.107032   4.243996  10.350200   # C_R
 233 1 7   0.000000  10.350200   4.243996  14.594196   # C_R
 234 1 7   0.000000  10.350200   4.243996   6.107032   # C_R
 235 1 7   0.000000  10.350200  16.457232   6.107032   # C_R
 236 1 7   0.000000  10.350200  16.457232  14.594196   # C_R
 237 1 7   0.000000  14.594196  10.350200   4.243996   # C_R
 238 1 7   0.000000   6.107032  10.350200   4.243996   # C_R
 239 1 7   0.000000   6.107032  10.350200  16.457232   # C_R
 240 1 7   0.000000  14.594196  10.350200  16.457232   # C_R
 241 1 7   0.000000  14.594196  14.594196   0.000000   # C_R
 242 1 7   0.000000  14.594196   6.107032   0.000000   # C_R
 243 1 7   0.000000   6.107032   6.107032   0.000000   # C_R
 244 1 7   0.000000   6.107032  14.594196   0.000000   # C_R
 245 1 7   0.000000  10.350200  14.594196   4.243996   # C_R
 246 1 7   0.000000  10.350200  14.594196  16.457232   # C_R
 247 1 7   0.000000  10.350200   6.107032  16.457232   # C_R
 248 1 7   0.000000  10.350200   6.107032   4.243996   # C_R
 249 1 7   0.000000   5.537150   0.000000   3.817154   # C_R
 250 1 7   0.000000  15.163250   0.000000   3.817154   # C_R
 251 1 7   0.000000  15.163250   0.000000  16.883246   # C_R
 252 1 7   0.000000   5.537150   0.000000  16.883246   # C_R
 253 1 7   0.000000   3.817154   5.537150   0.000000   # C_R
 254 1 7   0.000000   3.817154  15.163250   0.000000   # C_R
 255 1 7   0.000000  16.883246  15.163250   0.000000   # C_R
 256 1 7   0.000000  16.883246   5.537150   0.000000   # C_R
 257 1 7   0.000000   0.000000   3.817154   5.537150   # C_R
 258 1 7   0.000000   0.000000   3.817154  15.163250   # C_R
 259 1 7   0.000000   0.000000  16.883246  15.163250   # C_R
 260 1 7   0.000000   0.000000  16.883246   5.537150   # C_R
 261 1 7   0.000000   0.000000   5.537150  16.883246   # C_R
 262 1 7   0.000000   0.000000  15.163250  16.883246   # C_R
 263 1 7   0.000000   0.000000  15.163250   3.817154   # C_R
 264 1 7   0.000000   0.000000   5.537150   3.817154   # C_R
 265 1 7   0.000000   5.537150   3.817154   0.000000   # C_R
 266 1 7   0.000000  15.163250   3.817154   0.000000   # C_R
 267 1 7   0.000000  15.163250  16.883246   0.000000   # C_R
 268 1 7   0.000000   5.537150  16.883246   0.000000   # C_R
 269 1 7   0.000000   3.817154   0.000000  15.163250   # C_R
 270 1 7   0.000000   3.817154   0.000000   5.537150   # C_R
 271 1 7   0.000000  16.883246   0.000000   5.537150   # C_R
 272 1 7   0.000000  16.883246   0.000000  15.163250   # C_R
 273 1 7   0.000000   5.537150  10.350200  14.167354   # C_R
 274 1 7   0.000000  15.163250  10.350200  14.167354   # C_R
 275 1 7   0.000000  15.163250  10.350200   6.533046   # C_R
 276 1 7   0.000000   5.537150  10.350200   6.533046   # C_R
 277 1 7   0.000000   3.817154  15.888385  10.350200   # C_R
 278 1 7   0.000000   3.817154   4.813050  10.350200   # C_R
 279 1 7   0.000000  16.883246   4.813050  10.350200   # C_R
 280 1 7   0.000000  16.883246  15.888385  10.350200   # C_R
 281 1 7   0.000000   0.000000  14.167354  15.888385   # C_R
 282 1 7   0.000000   0.000000  14.167354   4.813050   # C_R
 283 1 7   0.000000   0.000000   6.533046   4.813050   # C_R
 284 1 7   0.000000   0.000000   6.533046  15.888385   # C_R
 285 1 7   0.000000   0.000000  15.888385   6.533046   # C_R
 286 1 7   0.000000   0.000000   4.813050   6.533046   # C_R
 287 1 7   0.000000   0.000000   4.813050  14.167354   # C_R
 288 1 7   0.000000   0.000000  15.888385  14.167354   # C_R
 289 1 7   0.000000   5.537150  14.167354  10.350200   # C_R
 290 1 7   0.000000  15.163250  14.167354  10.350200   # C_R
 291 1 7   0.000000  15.163250   6.533046  10.350200   # C_R
 292 1 7   0.000000   5.537150   6.533046  10.350200   # C_R
 293 1 7   0.000000   3.817154  10.350200   4.813050   # C_R
 294 1 7   0.000000   3.817154  10.350200  15.888385   # C_R
 295 1 7   0.000000  16.883246  10.350200  15.888385   # C_R
 296 1 7   0.000000  16.883246  10.350200   4.813050   # C_R
 297 1 7   0.000000  15.888385   0.000000  14.167354   # C_R
 298 1 7   0.000000   4.813050   0.000000  14.167354   # C_R
 299 1 7   0.000000   4.813050   0.000000   6.533046   # C_R
 300 1 7   0.000000  15.888385   0.000000   6.533046   # C_R
 301 1 7   0.000000  14.167354   5.537150  10.350200   # C_R
 302 1 7   0.000000  14.167354  15.163250  10.350200   # C_R
 303 1 7   0.000000   6.533046  15.163250  10.350200   # C_R
 304 1 7   0.000000   6.533046   5.537150  10.350200   # C_R
 305 1 7   0.000000  10.350200   3.817154  15.888385   # C_R
 306 1 7   0.000000  10.350200   3.817154   4.813050   # C_R
 307 1 7   0.000000  10.350200  16.883246   4.813050   # C_R
 308 1 7   0.000000  10.350200  16.883246  15.888385   # C_R
 309 1 7   0.000000  10.350200   5.537150   6.533046   # C_R
 310 1 7   0.000000  10.350200  15.163250   6.533046   # C_R
 311 1 7   0.000000  10.350200  15.163250  14.167354   # C_R
 312 1 7   0.000000  10.350200   5.537150  14.167354   # C_R
 313 1 7   0.000000  15.888385   3.817154  10.350200   # C_R
 314 1 7   0.000000   4.813050   3.817154  10.350200   # C_R
 315 1 7   0.000000   4.813050  16.883246  10.350200   # C_R
 316 1 7   0.000000  15.888385  16.883246  10.350200   # C_R
 317 1 7   0.000000  14.167354   0.000000   4.813050   # C_R
 318 1 7   0.000000  14.167354   0.000000  15.888385   # C_R
 319 1 7   0.000000   6.533046   0.000000  15.888385   # C_R
 320 1 7   0.000000   6.533046   0.000000   4.813050   # C_R
 321 1 7   0.000000  15.888385  10.350200   3.817154   # C_R
 322 1 7   0.000000   4.813050  10.350200   3.817154   # C_R
 323 1 7   0.000000   4.813050  10.350200  16.883246   # C_R
 324 1 7   0.000000  15.888385  10.350200  16.883246   # C_R
 325 1 7   0.000000  14.167354  15.888385   0.000000   # C_R
 326 1 7   0.000000  14.167354   4.813050   0.000000   # C_R
 327 1 7   0.000000   6.533046   4.813050   0.000000   # C_R
 328 1 7   0.000000   6.533046  15.888385   0.000000   # C_R
 329 1 7   0.000000  10.350200  14.167354   5.537150   # C_R
 330 1 7   0.000000  10.350200  14.167354  15.163250   # C_R
 331 1 7   0.000000  10.350200   6.533046  15.163250   # C_R
 332 1 7   0.000000  10.350200   6.533046   5.537150   # C_R
 333 1 7   0.000000  10.350200  15.888385  16.883246   # C_R
 334 1 7   0.000000  10.350200   4.813050  16.883246   # C_R
 335 1 7   0.000000  10.350200   4.813050   3.817154   # C_R
 336 1 7   0.000000  10.350200  15.888385   3.817154   # C_R
 337 1 7   0.000000  15.888385  14.167354   0.000000   # C_R
 338 1 7   0.000000   4.813050  14.167354   0.000000   # C_R
 339 1 7   0.000000   4.813050   6.533046   0.000000   # C_R
 340 1 7   0.000000  15.888385   6.533046   0.000000   # C_R
 341 1 7   0.000000  14.167354  10.350200  15.163250   # C_R
 342 1 7   0.000000  14.167354  10.350200   5.537150   # C_R
 343 1 7   0.000000   6.533046  10.350200   5.537150   # C_R
 344 1 7   0.000000   6.533046  10.350200  15.163250   # C_R
 345 1 5   0.000000   5.776033   0.000000   2.812977   # H_
 346 1 5   0.000000  14.924367   0.000000   2.812977   # H_
 347 1 5   0.000000  14.924367   0.000000  17.887423   # H_
 348 1 5   0.000000   5.776033   0.000000  17.887423   # H_
 349 1 5   0.000000   2.812977   5.776033   0.000000   # H_
 350 1 5   0.000000   2.812977  14.924367   0.000000   # H_
 351 1 5   0.000000  17.887423  14.924367   0.000000   # H_
 352 1 5   0.000000  17.887423   5.776033   0.000000   # H_
 353 1 5   0.000000   0.000000   2.812977   5.776033   # H_
 354 1 5   0.000000   0.000000   2.812977  14.924367   # H_
 355 1 5   0.000000   0.000000  17.887423  14.924367   # H_
 356 1 5   0.000000   0.000000  17.887423   5.776033   # H_
 357 1 5   0.000000   0.000000   5.776033  17.887423   # H_
 358 1 5   0.000000   0.000000  14.924367  17.887423   # H_
 359 1 5   0.000000   0.000000  14.924367   2.812977   # H_
 360 1 5   0.000000   0.000000   5.776033   2.812977   # H_
 361 1 5   0.000000   5.776033   2.812977   0.000000   # H_
 362 1 5   0.000000  14.924367   2.812977   0.000000   # H_
 363 1 5   0.000000  14.924367  17.887423   0.000000   # H_
 364 1 5   0.000000   5.776033  17.887423   0.000000   # H_
 365 1 5   0.000000   2.812977   0.000000  14.924367   # H_
 366 1 5   0.000000   2.812977   0.000000   5.776033   # H_
 367 1 5   0.000000  17.887423   0.000000   5.776033   # H_
 368 1 5   0.000000  17.887423   0.000000  14.924367   # H_
 369 1 5   0.000000   5.776033  10.350200  13.163177   # H_
 370 1 5   0.000000  14.924367  10.350200  13.163177   # H_
 371 1 5   0.000000  14.924367  10.350200   7.537223   # H_
 372 1 5   0.000000   5.776033  10.350200   7.537223   # H_
 373 1 5   0.000000   2.812977  16.126233  10.350200   # H_
 374 1 5   0.000000   2.812977   4.574167  10.350200   # H_
 375 1 5   0.000000  17.887423   4.574167  10.350200   # H_
 376 1 5   0.000000  17.887423  16.126233  10.350200   # H_
 377 1 5   0.000000   0.000000  13.163177  16.126233   # H_
 378 1 5   0.000000   0.000000  13.163177   4.574167   # H_
 379 1 5   0.000000   0.000000   7.537223   4.574167   # H_
 380 1 5   0.000000   0.000000   7.537223  16.126233   # H_
 381 1 5   0.000000   0.000000  16.126233   7.537223   # H_
 382 1 5   0.000000   0.000000   4.574167   7.537223   # H_
 383 1 5   0.000000   0.000000   4.574167  13.163177   # H_
 384 1 5   0.000000   0.000000  16.126233  13.163177   # H_
 385 1 5   0.000000   5.776033  13.163177  10.350200   # H_
 386 1 5   0.000000  14.924367  13.163177  10.350200   # H_
 387 1 5   0.000000  14.924367   7.537223  10.350200   # H_
 388 1 5   0.000000   5.776033   7.537223  10.350200   # H_
 389 1 5   0.000000   2.812977  10.350200   4.574167   # H_
 390 1 5   0.000000   2.812977  10.350200  16.126233   # H_
 391 1 5   0.000000  17.887423  10.350200  16.126233   # H_
 392 1 5   0.000000  17.887423  10.350200   4.574167   # H_
 393 1 5   0.000000  16.126233   0.000000  13.163177   # H_
 394 1 5   0.000000   4.574167   0.000000  13.163177   # H_
 395 1 5   0.000000   4.574167   0.000000   7.537223   # H_
 396 1 5   0.000000  16.126233   0.000000   7.537223   # H_
 397 1 5   0.000000  13.163177   5.776033  10.350200   # H_
 398 1 5   0.000000  13.163177  14.924367  10.350200   # H_
 399 1 5   0.000000   7.537223  14.924367  10.350200   # H_
 400 1 5   0.000000   7.537223   5.776033  10.350200   # H_
 401 1 5   0.000000  10.350200   2.812977  16.126233   # H_
 402 1 5   0.000000  10.350200   2.812977   4.574167   # H_
 403 1 5   0.000000  10.350200  17.887423   4.574167   # H_
 404 1 5   0.000000  10.350200  17.887423  16.126233   # H_
 405 1 5   0.000000  10.350200   5.776033   7.537223   # H_
 406 1 5   0.000000  10.350200  14.924367   7.537223   # H_
 407 1 5   0.000000  10.350200  14.924367  13.163177   # H_
 408 1 5   0.000000  10.350200   5.776033  13.163177   # H_
 409 1 5   0.000000  16.126233   2.812977  10.350200   # H_
 410 1 5   0.000000   4.574167   2.812977  10.350200   # H_
 411 1 5   0.000000   4.574167  17.887423  10.350200   # H_
 412 1 5   0.000000  16.126233  17.887423  10.350200   # H_
 413 1 5   0.000000  13.163177   0.000000   4.574167   # H_
 414 1 5   0.000000  13.163177   0.000000  16.126233   # H_
 415 1 5   0.000000   7.537223   0.000000  16.126233   # H_
 416 1 5   0.000000   7.537223   0.000000   4.574167   # H_
 417 1 5   0.000000  16.126233  10.350200   2.812977   # H_
 418 1 5   0.000000   4.574167  10.350200   2.812977   # H_
 419 1 5   0.000000   4.574167  10.350200  17.887423   # H_
 420 1 5   0.000000  16.126233  10.350200  17.887423   # H_
 421 1 5   0.000000  13.163177  16.126233   0.000000   # H_
 422 1 5   0.000000  13.163177   4.574167   0.000000   # H_
 423 1 5   0.000000   7.537223   4.574167   0.000000   # H_
 424 1 5   0.000000   7.537223  16.126233   0.000000   # H_
 425 1 5   0.000000  10.350200  13.163177   5.776033   # H_
 426 1 5   0.000000  10.350200  13.163177  14.924367   # H_
 427 1 5   0.000000  10.350200   7.537223  14.924367   # H_
 428 1 5   0.000000  10.350200   7.537223   5.776033   # H_
 429 1 5   0.000000  10.350200  16.126233  17.887423   # H_
 430 1 5   0.000000  10.350200   4.574167  17.887423   # H_
 431 1 5   0.000000  10.350200   4.574167   2.812977   # H_
 432 1 5   0.000000  10.350200  16.126233   2.812977   # H_
 433 1 5   0.000000  16.126233  13.163177   0.000000   # H_
 434 1 5   0.000000   4.574167  13.163177   0.000000   # H_
 435 1 5   0.000000   4.574167   7.537223   0.000000   # H_
 436 1 5   0.000000  16.126233   7.537223   0.000000   # H_
 437 1 5   0.000000  13.163177  10.350200  14.924367   # H_
 438 1 5   0.000000  13.163177  10.350200   5.776033   # H_
 439 1 5   0.000000   7.537223  10.350200   5.776033   # H_
 440 1 5   0.000000   7.537223  10.350200  14.924367   # H_
 441 1 18   0.000000   2.481978  20.700400   0.000000   # Zr8f4
 442 1 18   0.000000  18.219250  20.700400   0.000000   # Zr8f4