 (written by mofun)

10584 atoms
13824 bonds
36288 angles
19008 dihedrals
0 impropers

17 atom types
11 bond types
14 angle types
10 dihedral types
   0.000000  62.101200 xlo xhi
   0.000000  62.101200 ylo yhi
   0.000000  62.101200 zlo zhi

Masses

 1  91.224000   # Zr3+4
 2  15.999400   # O_3
 3  12.010700   # C_3
 4   1.007940   # H_
 5   1.007940   # H_
 6  12.010700   # C_2
 7  12.010700   # C_R
 8  15.999400   # O_2_M
 9  91.224000   # Zr8f4
 10   1.007940   # H_
 11  12.010700   # C_2
 12  15.999400   # O_2_M
 13  91.224000   # Zr8f4
 14   1.007940   # H_
 15  15.999400   # O_2_M
 16  15.999400   # O_3_f
 17  91.224000   # Zr8f4

Pair Coeffs

 1   0.069000   2.783168 # Zr3+4
 2   0.060000   3.118146 # O_3
 3   0.105000   3.430851 # C_3
 4   0.044000   2.571134 # H_
 5 0.044000 2.571134   # H_
 6 0.105000 3.430851   # C_2
 7 0.105000 3.430851   # C_R
 8 0.060000 3.118146   # O_2_M
 9 0.069000 2.783168   # Zr8f4
 10 0.044000 2.571134   # H_
 11 0.105000 3.430851   # C_2
 12 0.060000 3.118146   # O_2_M
 13 0.069000 2.783168   # Zr8f4
 14 0.044000 2.571134   # H_
 15 0.060000 3.118146   # O_2_M
 16 0.060000 3.118146   # O_3_f
 17 0.069000 2.783168   # Zr8f4

Bond Coeffs

 1 199.942436 2.410484   # O_2_M Zr8f4
 2 462.655054 1.379256   # C_R C_R
 3 389.261715 1.461000   # C_2 C_R
 4 709.805345 1.271799   # C_2 O_2_M
 5 357.440381 1.081418   # C_R H_
 6 199.942436 2.410484   # O_2_M Zr8f4
 7 709.805345 1.271799   # C_2 O_2_M
 8 354.483902 1.084416   # C_2 H_
 9 199.959824 2.410484   # O_3_f Zr8f4
 10 199.942436 2.410484   # O_2_M Zr8f4
 11 602.435128 0.966432   # H_ O_3_f

Angle Coeffs

 1 cosine/periodic  79.266221  -1  3   # C_2 O_2_M Zr8f4
 2 cosine/periodic  101.852144  -1  3   # C_2 C_R C_R
 3 cosine/periodic  111.297508  -1  3   # C_R C_R C_R
 4 cosine/periodic  57.289016  -1  3   # C_R C_R H_
 5 cosine/periodic  136.830763  -1  3   # C_R C_2 O_2_M
 6 cosine/periodic  205.385405  -1  3   # O_2_M C_2 O_2_M
 7 cosine/periodic  79.266221  -1  3   # C_2 O_2_M Zr8f4
 8 cosine/periodic  205.385405  -1  3   # O_2_M C_2 O_2_M
 9 cosine/periodic  79.339562  -1  3   # H_ C_2 O_2_M
 10 fourier  76.804805  0.343737  0.374972  0.281246   # O_3_f Zr8f4 O_3_f
 11 fourier  76.798126  0.343737  0.374972  0.281246   # O_2_M Zr8f4 O_3_f
 12 fourier  76.791448  0.343737  0.374972  0.281246   # O_2_M Zr8f4 O_2_M
 13 fourier  195.233589  0.343737  0.374972  0.281246   # Zr8f4 O_3_f Zr8f4
 14 fourier  78.498356  0.343737  0.374972  0.281246   # H_ O_3_f Zr8f4

Dihedral Coeffs

 1 6.737110 -1 2   # C_R C_2 O_2_M Zr8f4 M=2
 2 6.737110 -1 2   # O_2_M C_2 O_2_M Zr8f4 M=2
 3 3.368555 -1 2   # C_2 C_R C_R C_R M=4
 4 3.368555 -1 2   # C_2 C_R C_R H_ M=4
 5 3.368555 -1 2   # C_R C_R C_R C_R M=4
 6 3.368555 -1 2   # C_R C_R C_R H_ M=4
 7 1.250000 -1 2   # C_R C_R C_2 O_2_M M=4
 8 3.368555 -1 2   # H_ C_R C_R H_ M=4
 9 6.737110 -1 2   # O_2_M C_2 O_2_M Zr8f4 M=2
 10 6.737110 -1 2   # H_ C_2 O_2_M Zr8f4 M=2

Atoms

 1 1 17   0.000000   2.482185   0.000000   0.000000   # Zr8f4
 2 1 17   0.000000  18.219250   0.000000   0.000000   # Zr8f4
 3 1 17   0.000000   0.000000   2.482185   0.000000   # Zr8f4
 4 1 17   0.000000   0.000000  18.219250   0.000000   # Zr8f4
 5 1 17   0.000000   0.000000   0.000000   2.482185   # Zr8f4
 6 1 17   0.000000   0.000000   0.000000  18.219250   # Zr8f4
 7 1 17   0.000000   2.482185  10.350407  10.350407   # Zr8f4
 8 1 17   0.000000  18.219250  10.350407  10.350407   # Zr8f4
 9 1 17   0.000000   0.000000  12.831971  10.350407   # Zr8f4
 10 1 17   0.000000   0.000000   7.868222  10.350407   # Zr8f4
 11 1 17   0.000000   0.000000  10.350407  12.831971   # Zr8f4
 12 1 17   0.000000   0.000000  10.350407   7.868222   # Zr8f4
 13 1 17   0.000000  12.831971   0.000000  10.350407   # Zr8f4
 14 1 17   0.000000   7.868222   0.000000  10.350407   # Zr8f4
 15 1 17   0.000000  10.350407   2.482185  10.350407   # Zr8f4
 16 1 17   0.000000  10.350407  18.219250  10.350407   # Zr8f4
 17 1 17   0.000000  10.350407   0.000000  12.831971   # Zr8f4
 18 1 17   0.000000  10.350407   0.000000   7.868222   # Zr8f4
 19 1 17   0.000000  12.831971  10.350407   0.000000   # Zr8f4
 20 1 17   0.000000   7.868222  10.350407   0.000000   # Zr8f4
 21 1 17   0.000000  10.350407  12.831971   0.000000   # Zr8f4
 22 1 17   0.000000  10.350407   7.868222   0.000000   # Zr8f4
 23 1 17   0.000000  10.350407  10.350407   2.482185   # Zr8f4
 24 1 17   0.000000  10.350407  10.350407  18.219250   # Zr8f4
 25 1 15   0.000000   3.529211   0.000000   1.972955   # O_2_M
 26 1 15   0.000000  17.172224   0.000000   1.972955   # O_2_M
 27 1 15   0.000000  17.172224   0.000000  18.728480   # O_2_M
 28 1 15   0.000000   3.529211   0.000000  18.728480   # O_2_M
 29 1 15   0.000000   1.972955   3.529211   0.000000   # O_2_M
 30 1 15   0.000000   1.972955  17.172224   0.000000   # O_2_M
 31 1 15   0.000000  18.728480  17.172224   0.000000   # O_2_M
 32 1 15   0.000000  18.728480   3.529211   0.000000   # O_2_M
 33 1 15   0.000000   0.000000   1.972955   3.529211   # O_2_M
 34 1 15   0.000000   0.000000   1.972955  17.172224   # O_2_M
 35 1 15   0.000000   0.000000  18.728480  17.172224   # O_2_M
 36 1 15   0.000000   0.000000  18.728480   3.529211   # O_2_M
 37 1 15   0.000000   0.000000   3.529211  18.728480   # O_2_M
 38 1 15   0.000000   0.000000  17.172224  18.728480   # O_2_M
 39 1 15   0.000000   0.000000  17.172224   1.972955   # O_2_M
 40 1 15   0.000000   0.000000   3.529211   1.972955   # O_2_M
 41 1 15   0.000000   3.529211   1.972955   0.000000   # O_2_M
 42 1 15   0.000000  17.172224   1.972955   0.000000   # O_2_M
 43 1 15   0.000000  17.172224  18.728480   0.000000   # O_2_M
 44 1 15   0.000000   3.529211  18.728480   0.000000   # O_2_M
 45 1 15   0.000000   1.972955   0.000000  17.172224   # O_2_M
 46 1 15   0.000000   1.972955   0.000000   3.529211   # O_2_M
 47 1 15   0.000000  18.728480   0.000000   3.529211   # O_2_M
 48 1 15   0.000000  18.728480   0.000000  17.172224   # O_2_M
 49 1 15   0.000000   3.529211  10.350407  12.323362   # O_2_M
 50 1 15   0.000000  17.172224  10.350407  12.323362   # O_2_M
 51 1 15   0.000000  17.172224  10.350407   8.377452   # O_2_M
 52 1 15   0.000000   3.529211  10.350407   8.377452   # O_2_M
 53 1 15   0.000000   1.972955  13.878997  10.350407   # O_2_M
 54 1 15   0.000000   1.972955   6.821196  10.350407   # O_2_M
 55 1 15   0.000000  18.728480   6.821196  10.350407   # O_2_M
 56 1 15   0.000000  18.728480  13.878997  10.350407   # O_2_M
 57 1 15   0.000000   0.000000  12.323362  13.878997   # O_2_M
 58 1 15   0.000000   0.000000  12.323362   6.821196   # O_2_M
 59 1 15   0.000000   0.000000   8.377452   6.821196   # O_2_M
 60 1 15   0.000000   0.000000   8.377452  13.878997   # O_2_M
 61 1 15   0.000000   0.000000  13.878997   8.377452   # O_2_M
 62 1 15   0.000000   0.000000   6.821196   8.377452   # O_2_M
 63 1 15   0.000000   0.000000   6.821196  12.323362   # O_2_M
 64 1 15   0.000000   0.000000  13.878997  12.323362   # O_2_M
 65 1 15   0.000000   3.529211  12.323362  10.350407   # O_2_M
 66 1 15   0.000000  17.172224  12.323362  10.350407   # O_2_M
 67 1 15   0.000000  17.172224   8.377452  10.350407   # O_2_M
 68 1 15   0.000000   3.529211   8.377452  10.350407   # O_2_M
 69 1 15   0.000000   1.972955  10.350407   6.821196   # O_2_M
 70 1 15   0.000000   1.972955  10.350407  13.878997   # O_2_M
 71 1 15   0.000000  18.728480  10.350407  13.878997   # O_2_M
 72 1 15   0.000000  18.728480  10.350407   6.821196   # O_2_M
 73 1 15   0.000000  13.878997   0.000000  12.323362   # O_2_M
 74 1 15   0.000000   6.821196   0.000000  12.323362   # O_2_M
 75 1 15   0.000000   6.821196   0.000000   8.377452   # O_2_M
 76 1 15   0.000000  13.878997   0.000000   8.377452   # O_2_M
 77 1 15   0.000000  12.323362   3.529211  10.350407   # O_2_M
 78 1 15   0.000000  12.323362  17.172224  10.350407   # O_2_M
 79 1 15   0.000000   8.377452  17.172224  10.350407   # O_2_M
 80 1 15   0.000000   8.377452   3.529211  10.350407   # O_2_M
 81 1 15   0.000000  10.350407   1.972955  13.878997   # O_2_M
 82 1 15   0.000000  10.350407   1.972955   6.821196   # O_2_M
 83 1 15   0.000000  10.350407  18.728480   6.821196   # O_2_M
 84 1 15   0.000000  10.350407  18.728480  13.878997   # O_2_M
 85 1 15   0.000000  10.350407   3.529211   8.377452   # O_2_M
 86 1 15   0.000000  10.350407  17.172224   8.377452   # O_2_M
 87 1 15   0.000000  10.350407  17.172224  12.323362   # O_2_M
 88 1 15   0.000000  10.350407   3.529211  12.323362   # O_2_M
 89 1 15   0.000000  13.878997   1.972955  10.350407   # O_2_M
 90 1 15   0.000000   6.821196   1.972955  10.350407   # O_2_M
 91 1 15   0.000000   6.821196  18.728480  10.350407   # O_2_M
 92 1 15   0.000000  13.878997  18.728480  10.350407   # O_2_M
 93 1 15   0.000000  12.323362   0.000000   6.821196   # O_2_M
 94 1 15   0.000000  12.323362   0.000000  13.878997   # O_2_M
 95 1 15   0.000000   8.377452   0.000000  13.878997   # O_2_M
 96 1 15   0.000000   8.377452   0.000000   6.821196   # O_2_M
 97 1 15   0.000000  13.878997  10.350407   1.972955   # O_2_M
 98 1 15   0.000000   6.821196  10.350407   1.972955   # O_2_M
 99 1 15   0.000000   6.821196  10.350407  18.728480   # O_2_M
 100 1 15   0.000000  13.878997  10.350407  18.728480   # O_2_M
 101 1 15   0.000000  12.323362  13.878997   0.000000   # O_2_M
 102 1 15   0.000000  12.323362   6.821196   0.000000   # O_2_M
 103 1 15   0.000000   8.377452   6.821196   0.000000   # O_2_M
 104 1 15   0.000000   8.377452  13.878997   0.000000   # O_2_M
 105 1 15   0.000000  10.350407  12.323362   3.529211   # O_2_M
 106 1 15   0.000000  10.350407  12.323362  17.172224   # O_2_M
 107 1 15   0.000000  10.350407   8.377452  17.172224   # O_2_M
 108 1 15   0.000000  10.350407   8.377452   3.529211   # O_2_M
 109 1 15   0.000000  10.350407  13.878997  18.728480   # O_2_M
 110 1 15   0.000000  10.350407   6.821196  18.728480   # O_2_M
 111 1 15   0.000000  10.350407   6.821196   1.972955   # O_2_M
 112 1 15   0.000000  10.350407  13.878997   1.972955   # O_2_M
 113 1 15   0.000000  13.878997  12.323362   0.000000   # O_2_M
 114 1 15   0.000000   6.821196  12.323362   0.000000   # O_2_M
 115 1 15   0.000000   6.821196   8.377452   0.000000   # O_2_M
 116 1 15   0.000000  13.878997   8.377452   0.000000   # O_2_M
 117 1 15   0.000000  12.323362  10.350407  17.172224   # O_2_M
 118 1 15   0.000000  12.323362  10.350407   3.529211   # O_2_M
 119 1 15   0.000000   8.377452  10.350407   3.529211   # O_2_M
 120 1 15   0.000000   8.377452  10.350407  17.172224   # O_2_M
 121 1 16   0.000000   1.161292  19.539522  19.539522   # O_3_f
 122 1 16   0.000000  19.539522   1.161292  19.539522   # O_3_f
 123 1 16   0.000000  19.539522  19.539522   1.161292   # O_3_f
 124 1 16   0.000000   1.161292   1.161292   1.161292   # O_3_f
 125 1 16   0.000000  19.539522   1.161292   1.161292   # O_3_f
 126 1 16   0.000000   1.161292  19.539522   1.161292   # O_3_f
 127 1 16   0.000000  19.539522  19.539522  19.539522   # O_3_f
 128 1 16   0.000000   1.161292   1.161292  19.539522   # O_3_f
 129 1 16   0.000000   1.161292   9.189115   9.189115   # O_3_f
 130 1 16   0.000000  19.539522  11.511078   9.189115   # O_3_f
 131 1 16   0.000000  19.539522   9.189115  11.511078   # O_3_f
 132 1 16   0.000000   1.161292  11.511078  11.511078   # O_3_f
 133 1 16   0.000000  19.539522  11.511078  11.511078   # O_3_f
 134 1 16   0.000000   1.161292   9.189115  11.511078   # O_3_f
 135 1 16   0.000000  19.539522   9.189115   9.189115   # O_3_f
 136 1 16   0.000000   1.161292  11.511078   9.189115   # O_3_f
 137 1 16   0.000000  11.511078  19.539522   9.189115   # O_3_f
 138 1 16   0.000000   9.189115   1.161292   9.189115   # O_3_f
 139 1 16   0.000000   9.189115  19.539522  11.511078   # O_3_f
 140 1 16   0.000000  11.511078   1.161292  11.511078   # O_3_f
 141 1 16   0.000000   9.189115   1.161292  11.511078   # O_3_f
 142 1 16   0.000000  11.511078  19.539522  11.511078   # O_3_f
 143 1 16   0.000000   9.189115  19.539522   9.189115   # O_3_f
 144 1 16   0.000000  11.511078   1.161292   9.189115   # O_3_f
 145 1 16   0.000000  11.511078   9.189115  19.539522   # O_3_f
 146 1 16   0.000000   9.189115  11.511078  19.539522   # O_3_f
 147 1 16   0.000000   9.189115   9.189115   1.161292   # O_3_f
 148 1 16   0.000000  11.511078  11.511078   1.161292   # O_3_f
 149 1 16   0.000000   9.189115  11.511078   1.161292   # O_3_f
 150 1 16   0.000000  11.511078   9.189115   1.161292   # O_3_f
 151 1 16   0.000000   9.189115   9.189115  19.539522   # O_3_f
 152 1 16   0.000000  11.511078  11.511078  19.539522   # O_3_f
 153 1 11   0.000000   3.180202   0.000000  17.521233   # C_2
 154 1 11   0.000000  17.521233   0.000000  17.521233   # C_2
 155 1 11   0.000000  17.521233   0.000000   3.180202   # C_2
 156 1 11   0.000000   3.180202   0.000000   3.180202   # C_2
 157 1 6   0.000000  17.521233   3.180202   0.000000   # C_2
 158 1 6   0.000000  17.521233  17.521233   0.000000   # C_2
 159 1 6   0.000000   3.180202  17.521233   0.000000   # C_2
 160 1 6   0.000000   3.180202   3.180202   0.000000   # C_2
 161 1 6   0.000000   0.000000  17.521233   3.180202   # C_2
 162 1 6   0.000000   0.000000  17.521233  17.521233   # C_2
 163 1 6   0.000000   0.000000   3.180202  17.521233   # C_2
 164 1 6   0.000000   0.000000   3.180202   3.180202   # C_2
 165 1 11   0.000000   3.180202  10.350407   7.171447   # C_2
 166 1 11   0.000000  17.521233  10.350407   7.171447   # C_2
 167 1 11   0.000000  17.521233  10.350407  13.529988   # C_2
 168 1 11   0.000000   3.180202  10.350407  13.529988   # C_2
 169 1 6   0.000000  17.521233  13.529988  10.350407   # C_2
 170 1 6   0.000000  17.521233   7.171447  10.350407   # C_2
 171 1 6   0.000000   3.180202   7.171447  10.350407   # C_2
 172 1 6   0.000000   3.180202  13.529988  10.350407   # C_2
 173 1 6   0.000000   0.000000   7.171447  13.529988   # C_2
 174 1 6   0.000000   0.000000   7.171447   7.171447   # C_2
 175 1 6   0.000000   0.000000  13.529988   7.171447   # C_2
 176 1 6   0.000000   0.000000  13.529988  13.529988   # C_2
 177 1 11   0.000000  13.529988   0.000000   7.171447   # C_2
 178 1 11   0.000000   7.171447   0.000000   7.171447   # C_2
 179 1 11   0.000000   7.171447   0.000000  13.529988   # C_2
 180 1 11   0.000000  13.529988   0.000000  13.529988   # C_2
 181 1 6   0.000000   7.171447   3.180202  10.350407   # C_2
 182 1 6   0.000000   7.171447  17.521233  10.350407   # C_2
 183 1 6   0.000000  13.529988  17.521233  10.350407   # C_2
 184 1 6   0.000000  13.529988   3.180202  10.350407   # C_2
 185 1 6   0.000000  10.350407  17.521233  13.529988   # C_2
 186 1 6   0.000000  10.350407  17.521233   7.171447   # C_2
 187 1 6   0.000000  10.350407   3.180202   7.171447   # C_2
 188 1 6   0.000000  10.350407   3.180202  13.529988   # C_2
 189 1 11   0.000000  13.529988  10.350407  17.521233   # C_2
 190 1 11   0.000000   7.171447  10.350407  17.521233   # C_2
 191 1 11   0.000000   7.171447  10.350407   3.180202   # C_2
 192 1 11   0.000000  13.529988  10.350407   3.180202   # C_2
 193 1 6   0.000000   7.171447  13.529988   0.000000   # C_2
 194 1 6   0.000000   7.171447   7.171447   0.000000   # C_2
 195 1 6   0.000000  13.529988   7.171447   0.000000   # C_2
 196 1 6   0.000000  13.529988  13.529988   0.000000   # C_2
 197 1 6   0.000000  10.350407   7.171447   3.180202   # C_2
 198 1 6   0.000000  10.350407   7.171447  17.521233   # C_2
 199 1 6   0.000000  10.350407  13.529988  17.521233   # C_2
 200 1 6   0.000000  10.350407  13.529988   3.180202   # C_2
 201 1 7   0.000000   4.243996   4.243996   0.000000   # C_R
 202 1 7   0.000000   0.000000   4.243996   4.243996   # C_R
 203 1 7   0.000000   0.000000   4.243996  16.457439   # C_R
 204 1 7   0.000000   0.000000  16.457439  16.457439   # C_R
 205 1 7   0.000000   0.000000  16.457439   4.243996   # C_R
 206 1 7   0.000000   4.243996  14.594403  10.350407   # C_R
 207 1 7   0.000000  16.457439   6.107032  10.350407   # C_R
 208 1 7   0.000000  16.457439  14.594403  10.350407   # C_R
 209 1 7   0.000000  14.594403   4.243996  10.350407   # C_R
 210 1 7   0.000000   6.107032  16.457439  10.350407   # C_R
 211 1 7   0.000000   6.107032   4.243996  10.350407   # C_R
 212 1 7   0.000000  10.350407   4.243996  14.594403   # C_R
 213 1 7   0.000000  10.350407   4.243996   6.107032   # C_R
 214 1 7   0.000000  10.350407  16.457439  14.594403   # C_R
 215 1 7   0.000000  14.594403  14.594403   0.000000   # C_R
 216 1 7   0.000000  14.594403   6.107032   0.000000   # C_R
 217 1 7   0.000000   6.107032  14.594403   0.000000   # C_R
 218 1 7   0.000000  10.350407  14.594403   4.243996   # C_R
 219 1 7   0.000000  10.350407   6.107032  16.457439   # C_R
 220 1 7   0.000000   3.817361   5.536943   0.000000   # C_R
 221 1 7   0.000000   3.817361  15.163250   0.000000   # C_R
 222 1 7   0.000000  16.883453  15.163250   0.000000   # C_R
 223 1 7   0.000000  16.883453   5.536943   0.000000   # C_R
 224 1 7   0.000000   0.000000   3.817361   5.536943   # C_R
 225 1 7   0.000000   0.000000   3.817361  15.163250   # C_R
 226 1 7   0.000000   0.000000  16.883453  15.163250   # C_R
 227 1 7   0.000000   0.000000  16.883453   5.536943   # C_R
 228 1 7   0.000000   0.000000   5.536943  16.883453   # C_R
 229 1 7   0.000000   0.000000  15.163250  16.883453   # C_R
 230 1 7   0.000000   0.000000  15.163250   3.817361   # C_R
 231 1 7   0.000000   0.000000   5.536943   3.817361   # C_R
 232 1 7   0.000000   5.536943   3.817361   0.000000   # C_R
 233 1 7   0.000000  15.163250   3.817361   0.000000   # C_R
 234 1 7   0.000000  15.163250  16.883453   0.000000   # C_R
 235 1 7   0.000000   5.536943  16.883453   0.000000   # C_R
 236 1 7   0.000000   3.817361  15.888592  10.350407   # C_R
 237 1 7   0.000000   3.817361   4.812843  10.350407   # C_R
 238 1 7   0.000000  16.883453   4.812843  10.350407   # C_R
 239 1 7   0.000000  16.883453  15.888592  10.350407   # C_R
 240 1 7   0.000000   0.000000  14.167147  15.888592   # C_R
 241 1 7   0.000000   0.000000  14.167147   4.812843   # C_R
 242 1 7   0.000000   0.000000   6.533046   4.812843   # C_R
 243 1 7   0.000000   0.000000   6.533046  15.888592   # C_R
 244 1 7   0.000000   0.000000  15.888592   6.533046   # C_R
 245 1 7   0.000000   0.000000   4.812843   6.533046   # C_R
 246 1 7   0.000000   0.000000   4.812843  14.167147   # C_R
 247 1 7   0.000000   0.000000  15.888592  14.167147   # C_R
 248 1 7   0.000000   5.536943  14.167147  10.350407   # C_R
 249 1 7   0.000000  15.163250  14.167147  10.350407   # C_R
 250 1 7   0.000000  15.163250   6.533046  10.350407   # C_R
 251 1 7   0.000000   5.536943   6.533046  10.350407   # C_R
 252 1 7   0.000000  14.167147   5.536943  10.350407   # C_R
 253 1 7   0.000000  14.167147  15.163250  10.350407   # C_R
 254 1 7   0.000000   6.533046  15.163250  10.350407   # C_R
 255 1 7   0.000000   6.533046   5.536943  10.350407   # C_R
 256 1 7   0.000000  10.350407   3.817361  15.888592   # C_R
 257 1 7   0.000000  10.350407   3.817361   4.812843   # C_R
 258 1 7   0.000000  10.350407  16.883453   4.812843   # C_R
 259 1 7   0.000000  10.350407  16.883453  15.888592   # C_R
 260 1 7   0.000000  10.350407   5.536943   6.533046   # C_R
 261 1 7   0.000000  10.350407  15.163250   6.533046   # C_R
 262 1 7   0.000000  10.350407  15.163250  14.167147   # C_R
 263 1 7   0.000000  10.350407   5.536943  14.167147   # C_R
 264 1 7   0.000000  15.888592   3.817361  10.350407   # C_R
 265 1 7   0.000000   4.812843   3.817361  10.350407   # C_R
 266 1 7   0.000000   4.812843  16.883453  10.350407   # C_R
 267 1 7   0.000000  15.888592  16.883453  10.350407   # C_R
 268 1 7   0.000000  14.167147  15.888592   0.000000   # C_R
 269 1 7   0.000000  14.167147   4.812843   0.000000   # C_R
 270 1 7   0.000000   6.533046   4.812843   0.000000   # C_R
 271 1 7   0.000000   6.533046  15.888592   0.000000   # C_R
 272 1 7   0.000000  10.350407  14.167147   5.536943   # C_R
 273 1 7   0.000000  10.350407  14.167147  15.163250   # C_R
 274 1 7   0.000000  10.350407   6.533046  15.163250   # C_R
 275 1 7   0.000000  10.350407   6.533046   5.536943   # C_R
 276 1 7   0.000000  10.350407  15.888592  16.883453   # C_R
 277 1 7   0.000000  10.350407   4.812843  16.883453   # C_R
 278 1 7   0.000000  10.350407   4.812843   3.817361   # C_R
 279 1 7   0.000000  10.350407  15.888592   3.817361   # C_R
 280 1 7   0.000000  15.888592  14.167147   0.000000   # C_R
 281 1 7   0.000000   4.812843  14.167147   0.000000   # C_R
 282 1 7   0.000000   4.812843   6.533046   0.000000   # C_R
 283 1 7   0.000000  15.888592   6.533046   0.000000   # C_R
 284 1 5   0.000000   2.813184   5.776033   0.000000   # H_
 285 1 5   0.000000   2.813184  14.924160   0.000000   # H_
 286 1 5   0.000000  17.887630  14.924160   0.000000   # H_
 287 1 5   0.000000  17.887630   5.776033   0.000000   # H_
 288 1 5   0.000000   0.000000   2.813184   5.776033   # H_
 289 1 5   0.000000   0.000000   2.813184  14.924160   # H_
 290 1 5   0.000000   0.000000  17.887630  14.924160   # H_
 291 1 5   0.000000   0.000000  17.887630   5.776033   # H_
 292 1 5   0.000000   0.000000   5.776033  17.887630   # H_
 293 1 5   0.000000   0.000000  14.924160  17.887630   # H_
 294 1 5   0.000000   0.000000  14.924160   2.813184   # H_
 295 1 5   0.000000   0.000000   5.776033   2.813184   # H_
 296 1 5   0.000000   5.776033   2.813184   0.000000   # H_
 297 1 5   0.000000  14.924160   2.813184   0.000000   # H_
 298 1 5   0.000000  14.924160  17.887630   0.000000   # H_
 299 1 5   0.000000   5.776033  17.887630   0.000000   # H_
 300 1 5   0.000000   2.813184  16.126440  10.350407   # H_
 301 1 5   0.000000   2.813184   4.574374  10.350407   # H_
 302 1 5   0.000000  17.887630   4.574374  10.350407   # H_
 303 1 5   0.000000  17.887630  16.126440  10.350407   # H_
 304 1 5   0.000000   0.000000  13.162970  16.126440   # H_
 305 1 5   0.000000   0.000000  13.162970   4.574374   # H_
 306 1 5   0.000000   0.000000   7.537223   4.574374   # H_
 307 1 5   0.000000   0.000000   7.537223  16.126440   # H_
 308 1 5   0.000000   0.000000  16.126440   7.537223   # H_
 309 1 5   0.000000   0.000000   4.574374   7.537223   # H_
 310 1 5   0.000000   0.000000   4.574374  13.162970   # H_
 311 1 5   0.000000   0.000000  16.126440  13.162970   # H_
 312 1 5   0.000000   5.776033  13.162970  10.350407   # H_
 313 1 5   0.000000  14.924160  13.162970  10.350407   # H_
 314 1 5   0.000000  14.924160   7.537223  10.350407   # H_
 315 1 5   0.000000   5.776033   7.537223  10.350407   # H_
 316 1 5   0.000000  13.162970   5.776033  10.350407   # H_
 317 1 5   0.000000  13.162970  14.924160  10.350407   # H_
 318 1 5   0.000000   7.537223  14.924160  10.350407   # H_
 319 1 5   0.000000   7.537223   5.776033  10.350407   # H_
 320 1 5   0.000000  10.350407   2.813184  16.126440   # H_
 321 1 5   0.000000  10.350407   2.813184   4.574374   # H_
 322 1 5   0.000000  10.350407  17.887630   4.574374   # H_
 323 1 5   0.000000  10.350407  17.887630  16.126440   # H_
 324 1 5   0.000000  10.350407   5.776033   7.537223   # H_
 325 1 5   0.000000  10.350407  14.924160   7.537223   # H_
 326 1 5   0.000000  10.350407  14.924160  13.162970   # H_
 327 1 5   0.000000  10.350407   5.776033  13.162970   # H_
 328 1 5   0.000000  16.126440   2.813184  10.350407   # H_
 329 1 5   0.000000   4.574374   2.813184  10.350407   # H_
 330 1 5   0.000000   4.574374  17.887630  10.350407   # H_
 331 1 5   0.000000  16.126440  17.887630  10.350407   # H_
 332 1 5   0.000000  13.162970  16.126440   0.000000   # H_
 333 1 5   0.000000  13.162970   4.574374   0.000000   # H_
 334 1 5   0.000000   7.537223   4.574374   0.000000   # H_
 335 1 5   0.000000   7.537223  16.126440   0.000000   # H_
 336 1 5   0.000000  10.350407  13.162970   5.776033   # H_
 337 1 5   0.000000  10.350407  13.162970  14.924160   # H_
 338 1 5   0.000000  10.350407   7.537223  14.924160   # H_
 339 1 5   0.000000  10.350407   7.537223   5.776033   # H_
 340 1 5   0.000000  10.350407  16.126440  17.887630   # H_
 341 1 5   0.000000  10.350407   4.574374  17.887630   # H_
 342 1 5   0.000000  10.350407   4.574374   2.813184   # H_
 343 1 5   0.000000  10.350407  16.126440   2.813184   # H_
 344 1 5   0.000000  16.126440  13.162970   0.000000   # H_
 345 1 5   0.000000   4.574374  13.162970   0.000000   # H_
 346 1 5   0.000000   4.574374   7.537223   0.000000   # H_
 347 1 5   0.000000  16.126440   7.537223   0.000000   # H_
 348 1 10   0.000000  14.353450   0.000000   6.461009   # H_
 349 1 10   0.000000  16.959838   0.000000   3.937216   # H_
 350 1 10   0.000000   6.461009   0.000000  14.353450   # H_
 351 1 10   0.000000   3.937216   0.000000  16.959838   # H_
 352 1 10   0.000000  14.239805  10.350407  16.697150   # H_
 353 1 10   0.000000  16.763598  10.350407  14.090762   # H_
 354 1 10   0.000000  14.353450  10.350407   3.889398   # H_
 355 1 10   0.000000  16.959838  10.350407   6.412570   # H_
 356 1 10   0.000000   4.003664  10.350407  14.239805   # H_
 357 1 10   0.000000   6.610052  10.350407  16.763598   # H_
 358 1 10   0.000000   4.003043  10.350407   6.461009   # H_
 359 1 10   0.000000   6.610052  10.350407   3.937216   # H_
 360 1 10   0.000000   6.346743   0.000000   6.461009   # H_
 361 1 10   0.000000   3.740355   0.000000   3.937216   # H_
 362 1 10   0.000000  14.353450   0.000000  14.239805   # H_
 363 1 10   0.000000  16.959838   0.000000  16.763598   # H_
 364 1 7   0.000000  10.350407  16.456818   6.106411   # C_R
 365 1 7   0.000000   0.000000  14.593782   6.106411   # C_R
 366 1 7   0.000000  14.594403  16.456818  10.350407   # C_R
 367 1 7   0.000000  16.456818  16.457439   0.000000   # C_R
 368 1 7   0.000000   0.000000   6.106411  14.594403   # C_R
 369 1 7   0.000000   6.106411   6.107032   0.000000   # C_R
 370 1 7   0.000000   0.000000   6.107032   6.106411   # C_R
 371 1 7   0.000000   4.243375   6.106411  10.350407   # C_R
 372 1 7   0.000000  10.350407   6.106411   4.243375   # C_R
 373 1 7   0.000000   4.243375  16.456818   0.000000   # C_R
 374 1 7   0.000000  16.457439   4.243996   0.000000   # C_R
 375 1 7   0.000000  10.350407  14.594403  16.456818   # C_R
 376 1 7   0.000000   0.000000  14.593782  14.594403   # C_R
 377 1 14   0.000000   1.764916  19.113507   1.604695   # H_
 378 1 14   0.000000   1.721445   1.328966  18.845230   # H_
 379 1 14   0.000000  19.292359   1.763674   1.764916   # H_
 380 1 14   0.000000  19.307884  18.875039  18.871313   # H_
 381 1 14   0.000000  19.113507   8.745091   8.585491   # H_
 382 1 14   0.000000   1.328966  12.205370   8.628962   # H_
 383 1 14   0.000000   1.763674   8.585491  11.758241   # H_
 384 1 14   0.000000  18.875039  12.179287  11.742716   # H_
 385 1 14   0.000000  11.955102   1.586686  12.114702   # H_
 386 1 14   0.000000   8.494823  19.371227  12.071852   # H_
 387 1 14   0.000000  12.114702  18.936519   8.941952   # H_
 388 1 14   0.000000   8.520906   1.825154   8.958098   # H_
 389 1 14   0.000000  12.114702  11.937093  19.095498   # H_
 390 1 14   0.000000  12.071852   9.021441   1.855584   # H_
 391 1 14   0.000000   8.941952   8.586733  18.935898   # H_
 392 1 14   0.000000   8.958098  12.175561   1.829501   # H_
 393 1 17   0.000000   2.482185  20.700193   0.000000   # Zr8f4
 394 1 17   0.000000  18.219250  20.700193   0.000000   # Zr8f4
 395 1 17   0.000000   0.000000  23.182378   0.000000   # Zr8f4
 396 1 17   0.000000   0.000000  38.919443   0.000000   # Zr8f4
 397 1 17   0.000000   0.000000  20.700193   2.482185   # Zr8f4
 398 1 17   0.000000   0.000000  20.700193  18.219250   # Zr8f4
 399 1 17   0.000000   2.482185  31.050600  10.350407   # Zr8f4
 400 1 17   0.000000  18.219250  31.050600  10.350407   # Zr8f4
 401 1 17   0.000000   0.000000  33.532785  10.350407   # Zr8f4
 402 1 17   0.000000   0.000000  28.568415  10.350407   # Zr8f4
 403 1 17   0.000000   0.000000  31.050600  12.831971   # Zr8f4
 404 1 17   0.000000   0.000000  31.050600   7.868222   # Zr8f4
 405 1 17   0.000000  12.831971  20.700193  10.350407   # Zr8f4
 406 1 17   0.000000   7.868222  20.700193  10.350407   # Zr8f4
 407 1 17   0.000000  10.350407  23.182378  10.350407   # Zr8f4
 408 1 17   0.000000  10.350407  38.919443  10.350407   # Zr8f4
 409 1 17   0.000000  10.350407  20.700193  12.831971   # Zr8f4
 410 1 17   0.000000  10.350407  20.700193   7.868222   # Zr8f4
 411 1 17   0.000000  12.831971  31.050600   0.000000   # Zr8f4
 412 1 17   0.000000   7.868222  31.050600   0.000000   # Zr8f4
 413 1 17   0.000000  10.350407  33.532785   0.000000   # Zr8f4
 414 1 17   0.000000  10.350407  28.568415   0.000000   # Zr8f4
 415 1 17   0.000000  10.350407  31.050600   2.482185   # Zr8f4
 416 1 17   0.000000  10.350407  31.050600  18.219250   # Zr8f4
 417 1 15   0.000000   3.529211  20.700193   1.972955   # O_2_M
 418 1 15   0.000000  17.172224  20.700193   1.972955   # O_2_M
 419 1 15   0.000000  17.172224  20.700193  18.728480   # O_2_M
 420 1 15   0.000000   3.529211  20.700193  18.728480   # O_2_M
 421 1 15   0.000000   1.972955  24.229404   0.000000   # O_2_M
 422 1 15   0.000000   1.972955  37.873038   0.000000   # O_2_M
 423 1 15   0.000000  18.728480  37.873038   0.000000   # O_2_M
 424 1 15   0.000000  18.728480  24.229404   0.000000   # O_2_M
 425 1 15   0.000000   0.000000  22.673148   3.529211   # O_2_M
 426 1 15   0.000000   0.000000  22.673148  17.172224   # O_2_M
 427 1 15   0.000000   0.000000  39.428673  17.172224   # O_2_M
 428 1 15   0.000000   0.000000  39.428673   3.529211   # O_2_M
 429 1 15   0.000000   0.000000  24.229404  18.728480   # O_2_M
 430 1 15   0.000000   0.000000  37.873038  18.728480   # O_2_M
 431 1 15   0.000000   0.000000  37.873038   1.972955   # O_2_M
 432 1 15   0.000000   0.000000  24.229404   1.972955   # O_2_M
 433 1 15   0.000000   3.529211  22.673148   0.000000   # O_2_M
 434 1 15   0.000000  17.172224  22.673148   0.000000   # O_2_M
 435 1 15   0.000000  17.172224  39.428673   0.000000   # O_2_M
 436 1 15   0.000000   3.529211  39.428673   0.000000   # O_2_M