 (written by mofun)

7938 atoms
10368 bonds
27216 angles
14256 dihedrals
0 impropers

17 atom types
11 bond types
14 angle types
10 dihedral types
   0.000000  62.101200 xlo xhi
   0.000000  62.101200 ylo yhi
   0.000000  62.101200 zlo zhi

Masses

 1  91.224000   # Zr3+4
 2  15.999400   # O_3
 3  12.010700   # C_3
 4   1.007940   # H_
 5   1.007940   # H_
 6  12.010700   # C_2
 7  12.010700   # C_R
 8  15.999400   # O_2_M
 9  91.224000   # Zr8f4
 10   1.007940   # H_
 11  12.010700   # C_2
 12  15.999400   # O_2_M
 13  91.224000   # Zr8f4
 14   1.007940   # H_
 15  15.999400   # O_2_M
 16  15.999400   # O_3_f
 17  91.224000   # Zr8f4

Pair Coeffs

 1   0.069000   2.783168 # Zr3+4
 2   0.060000   3.118146 # O_3
 3   0.105000   3.430851 # C_3
 4   0.044000   2.571134 # H_
 5 0.044000 2.571134   # H_
 6 0.105000 3.430851   # C_2
 7 0.105000 3.430851   # C_R
 8 0.060000 3.118146   # O_2_M
 9 0.069000 2.783168   # Zr8f4
 10 0.044000 2.571134   # H_
 11 0.105000 3.430851   # C_2
 12 0.060000 3.118146   # O_2_M
 13 0.069000 2.783168   # Zr8f4
 14 0.044000 2.571134   # H_
 15 0.060000 3.118146   # O_2_M
 16 0.060000 3.118146   # O_3_f
 17 0.069000 2.783168   # Zr8f4

Bond Coeffs

 1 199.942436 2.410484   # O_2_M Zr8f4
 2 462.655054 1.379256   # C_R C_R
 3 389.261715 1.461000   # C_2 C_R
 4 709.805345 1.271799   # C_2 O_2_M
 5 357.440381 1.081418   # C_R H_
 6 199.942436 2.410484   # O_2_M Zr8f4
 7 354.483902 1.084416   # C_2 H_
 8 709.805345 1.271799   # C_2 O_2_M
 9 199.959824 2.410484   # O_3_f Zr8f4
 10 199.942436 2.410484   # O_2_M Zr8f4
 11 602.435128 0.966432   # H_ O_3_f

Angle Coeffs

 1 cosine/periodic  79.266221  -1  3   # C_2 O_2_M Zr8f4
 2 cosine/periodic  101.852144  -1  3   # C_2 C_R C_R
 3 cosine/periodic  111.297508  -1  3   # C_R C_R C_R
 4 cosine/periodic  57.289016  -1  3   # C_R C_R H_
 5 cosine/periodic  136.830763  -1  3   # C_R C_2 O_2_M
 6 cosine/periodic  205.385405  -1  3   # O_2_M C_2 O_2_M
 7 cosine/periodic  79.266221  -1  3   # C_2 O_2_M Zr8f4
 8 cosine/periodic  79.339562  -1  3   # H_ C_2 O_2_M
 9 cosine/periodic  205.385405  -1  3   # O_2_M C_2 O_2_M
 10 fourier  76.804805  0.343737  0.374972  0.281246   # O_3_f Zr8f4 O_3_f
 11 fourier  76.798126  0.343737  0.374972  0.281246   # O_2_M Zr8f4 O_3_f
 12 fourier  76.791448  0.343737  0.374972  0.281246   # O_2_M Zr8f4 O_2_M
 13 fourier  195.233589  0.343737  0.374972  0.281246   # Zr8f4 O_3_f Zr8f4
 14 fourier  78.498356  0.343737  0.374972  0.281246   # H_ O_3_f Zr8f4

Dihedral Coeffs

 1 6.737110 -1 2   # C_R C_2 O_2_M Zr8f4 M=2
 2 6.737110 -1 2   # O_2_M C_2 O_2_M Zr8f4 M=2
 3 3.368555 -1 2   # C_2 C_R C_R C_R M=4
 4 3.368555 -1 2   # C_2 C_R C_R H_ M=4
 5 3.368555 -1 2   # C_R C_R C_R C_R M=4
 6 3.368555 -1 2   # C_R C_R C_R H_ M=4
 7 1.250000 -1 2   # C_R C_R C_2 O_2_M M=4
 8 3.368555 -1 2   # H_ C_R C_R H_ M=4
 9 6.737110 -1 2   # H_ C_2 O_2_M Zr8f4 M=2
 10 6.737110 -1 2   # O_2_M C_2 O_2_M Zr8f4 M=2

Atoms

 1 1 17   0.000000   2.481978   0.000000   0.000000   # Zr8f4
 2 1 17   0.000000  18.219250   0.000000   0.000000   # Zr8f4
 3 1 17   0.000000   0.000000   2.481978   0.000000   # Zr8f4
 4 1 17   0.000000   0.000000  18.219250   0.000000   # Zr8f4
 5 1 17   0.000000   0.000000   0.000000   2.481978   # Zr8f4
 6 1 17   0.000000   0.000000   0.000000  18.219250   # Zr8f4
 7 1 17   0.000000   2.481978  10.350200  10.350200   # Zr8f4
 8 1 17   0.000000  18.219250  10.350200  10.350200   # Zr8f4
 9 1 17   0.000000   0.000000  12.832178  10.350200   # Zr8f4
 10 1 17   0.000000   0.000000   7.868222  10.350200   # Zr8f4
 11 1 17   0.000000   0.000000  10.350200  12.832178   # Zr8f4
 12 1 17   0.000000   0.000000  10.350200   7.868222   # Zr8f4
 13 1 17   0.000000  12.832178   0.000000  10.350200   # Zr8f4
 14 1 17   0.000000   7.868222   0.000000  10.350200   # Zr8f4
 15 1 17   0.000000  10.350200   2.481978  10.350200   # Zr8f4
 16 1 17   0.000000  10.350200  18.219250  10.350200   # Zr8f4
 17 1 17   0.000000  10.350200   0.000000  12.832178   # Zr8f4
 18 1 17   0.000000  10.350200   0.000000   7.868222   # Zr8f4
 19 1 15   0.000000   3.529004   0.000000   1.972955   # O_2_M
 20 1 15   0.000000  17.172431   0.000000   1.972955   # O_2_M
 21 1 15   0.000000  17.172431   0.000000  18.728273   # O_2_M
 22 1 15   0.000000   3.529004   0.000000  18.728273   # O_2_M
 23 1 15   0.000000   1.972955   3.529004   0.000000   # O_2_M
 24 1 15   0.000000   1.972955  17.172431   0.000000   # O_2_M
 25 1 15   0.000000  18.728273  17.172431   0.000000   # O_2_M
 26 1 15   0.000000  18.728273   3.529004   0.000000   # O_2_M
 27 1 15   0.000000   0.000000   1.972955   3.529004   # O_2_M
 28 1 15   0.000000   0.000000   1.972955  17.172431   # O_2_M
 29 1 15   0.000000   0.000000  18.728273  17.172431   # O_2_M
 30 1 15   0.000000   0.000000  18.728273   3.529004   # O_2_M
 31 1 15   0.000000   0.000000   3.529004  18.728273   # O_2_M
 32 1 15   0.000000   0.000000  17.172431  18.728273   # O_2_M
 33 1 15   0.000000   0.000000  17.172431   1.972955   # O_2_M
 34 1 15   0.000000   0.000000   3.529004   1.972955   # O_2_M
 35 1 15   0.000000   3.529004   1.972955   0.000000   # O_2_M
 36 1 15   0.000000  17.172431   1.972955   0.000000   # O_2_M
 37 1 15   0.000000  17.172431  18.728273   0.000000   # O_2_M
 38 1 15   0.000000   3.529004  18.728273   0.000000   # O_2_M
 39 1 15   0.000000   1.972955   0.000000  17.172431   # O_2_M
 40 1 15   0.000000   1.972955   0.000000   3.529004   # O_2_M
 41 1 15   0.000000  18.728273   0.000000   3.529004   # O_2_M
 42 1 15   0.000000  18.728273   0.000000  17.172431   # O_2_M
 43 1 15   0.000000   3.529004  10.350200  12.323155   # O_2_M
 44 1 15   0.000000  17.172431  10.350200  12.323155   # O_2_M
 45 1 15   0.000000  17.172431  10.350200   8.377245   # O_2_M
 46 1 15   0.000000   3.529004  10.350200   8.377245   # O_2_M
 47 1 15   0.000000   1.972955  13.879204  10.350200   # O_2_M
 48 1 15   0.000000   1.972955   6.821196  10.350200   # O_2_M
 49 1 15   0.000000  18.728273   6.821196  10.350200   # O_2_M
 50 1 15   0.000000  18.728273  13.879204  10.350200   # O_2_M
 51 1 15   0.000000   0.000000  12.323155  13.879204   # O_2_M
 52 1 15   0.000000   0.000000  12.323155   6.821196   # O_2_M
 53 1 15   0.000000   0.000000   8.377245   6.821196   # O_2_M
 54 1 15   0.000000   0.000000   8.377245  13.879204   # O_2_M
 55 1 15   0.000000   0.000000  13.879204   8.377245   # O_2_M
 56 1 15   0.000000   0.000000   6.821196   8.377245   # O_2_M
 57 1 15   0.000000   0.000000   6.821196  12.323155   # O_2_M
 58 1 15   0.000000   0.000000  13.879204  12.323155   # O_2_M
 59 1 15   0.000000   3.529004  12.323155  10.350200   # O_2_M
 60 1 15   0.000000  17.172431  12.323155  10.350200   # O_2_M
 61 1 15   0.000000  17.172431   8.377245  10.350200   # O_2_M
 62 1 15   0.000000   3.529004   8.377245  10.350200   # O_2_M
 63 1 15   0.000000   1.972955  10.350200   6.821196   # O_2_M
 64 1 15   0.000000   1.972955  10.350200  13.879204   # O_2_M
 65 1 15   0.000000  18.728273  10.350200  13.879204   # O_2_M
 66 1 15   0.000000  18.728273  10.350200   6.821196   # O_2_M
 67 1 15   0.000000  13.879204   0.000000  12.323155   # O_2_M
 68 1 15   0.000000   6.821196   0.000000  12.323155   # O_2_M
 69 1 15   0.000000   6.821196   0.000000   8.377245   # O_2_M
 70 1 15   0.000000  13.879204   0.000000   8.377245   # O_2_M
 71 1 15   0.000000  12.323155   3.529004  10.350200   # O_2_M
 72 1 15   0.000000  12.323155  17.172431  10.350200   # O_2_M
 73 1 15   0.000000   8.377245  17.172431  10.350200   # O_2_M
 74 1 15   0.000000   8.377245   3.529004  10.350200   # O_2_M
 75 1 15   0.000000  10.350200   1.972955  13.879204   # O_2_M
 76 1 15   0.000000  10.350200   1.972955   6.821196   # O_2_M
 77 1 15   0.000000  10.350200  18.728273   6.821196   # O_2_M
 78 1 15   0.000000  10.350200  18.728273  13.879204   # O_2_M
 79 1 15   0.000000  10.350200   3.529004   8.377245   # O_2_M
 80 1 15   0.000000  10.350200  17.172431   8.377245   # O_2_M
 81 1 15   0.000000  10.350200  17.172431  12.323155   # O_2_M
 82 1 15   0.000000  10.350200   3.529004  12.323155   # O_2_M
 83 1 15   0.000000  13.879204   1.972955  10.350200   # O_2_M
 84 1 15   0.000000   6.821196   1.972955  10.350200   # O_2_M
 85 1 15   0.000000   6.821196  18.728273  10.350200   # O_2_M
 86 1 15   0.000000  13.879204  18.728273  10.350200   # O_2_M
 87 1 15   0.000000  12.323155   0.000000   6.821196   # O_2_M
 88 1 15   0.000000  12.323155   0.000000  13.879204   # O_2_M
 89 1 15   0.000000   8.377245   0.000000  13.879204   # O_2_M
 90 1 15   0.000000   8.377245   0.000000   6.821196   # O_2_M
 91 1 16   0.000000   1.161085  19.539315  19.539315   # O_3_f
 92 1 16   0.000000  19.539315   1.161085  19.539315   # O_3_f
 93 1 16   0.000000  19.539315  19.539315   1.161085   # O_3_f
 94 1 16   0.000000   1.161085   1.161085   1.161085   # O_3_f
 95 1 16   0.000000  19.539315   1.161085   1.161085   # O_3_f
 96 1 16   0.000000   1.161085  19.539315   1.161085   # O_3_f
 97 1 16   0.000000  19.539315  19.539315  19.539315   # O_3_f
 98 1 16   0.000000   1.161085   1.161085  19.539315   # O_3_f
 99 1 16   0.000000   1.161085   9.189115   9.189115   # O_3_f
 100 1 16   0.000000  19.539315  11.511285   9.189115   # O_3_f
 101 1 16   0.000000  19.539315   9.189115  11.511285   # O_3_f
 102 1 16   0.000000   1.161085  11.511285  11.511285   # O_3_f
 103 1 16   0.000000  19.539315  11.511285  11.511285   # O_3_f
 104 1 16   0.000000   1.161085   9.189115  11.511285   # O_3_f
 105 1 16   0.000000  19.539315   9.189115   9.189115   # O_3_f
 106 1 16   0.000000   1.161085  11.511285   9.189115   # O_3_f
 107 1 16   0.000000  11.511285  19.539315   9.189115   # O_3_f
 108 1 16   0.000000   9.189115   1.161085   9.189115   # O_3_f
 109 1 16   0.000000   9.189115  19.539315  11.511285   # O_3_f
 110 1 16   0.000000  11.511285   1.161085  11.511285   # O_3_f
 111 1 16   0.000000   9.189115   1.161085  11.511285   # O_3_f
 112 1 16   0.000000  11.511285  19.539315  11.511285   # O_3_f
 113 1 16   0.000000   9.189115  19.539315   9.189115   # O_3_f
 114 1 16   0.000000  11.511285   1.161085   9.189115   # O_3_f
 115 1 6   0.000000   3.179995   0.000000  17.521440   # C_2
 116 1 6   0.000000  17.521440   0.000000  17.521440   # C_2
 117 1 6   0.000000  17.521440   0.000000   3.179995   # C_2
 118 1 6   0.000000   3.179995   0.000000   3.179995   # C_2
 119 1 11   0.000000  17.521440   3.179995   0.000000   # C_2
 120 1 11   0.000000  17.521440  17.521440   0.000000   # C_2
 121 1 11   0.000000   3.179995  17.521440   0.000000   # C_2
 122 1 11   0.000000   3.179995   3.179995   0.000000   # C_2
 123 1 6   0.000000   0.000000  17.521440   3.179995   # C_2
 124 1 6   0.000000   0.000000  17.521440  17.521440   # C_2
 125 1 6   0.000000   0.000000   3.179995  17.521440   # C_2
 126 1 6   0.000000   0.000000   3.179995   3.179995   # C_2
 127 1 11   0.000000   3.179995  10.350200   7.171240   # C_2
 128 1 11   0.000000  17.521440  10.350200   7.171240   # C_2
 129 1 11   0.000000  17.521440  10.350200  13.530195   # C_2
 130 1 11   0.000000   3.179995  10.350200  13.530195   # C_2
 131 1 6   0.000000  17.521440  13.530195  10.350200   # C_2
 132 1 6   0.000000  17.521440   7.171240  10.350200   # C_2
 133 1 6   0.000000   3.179995   7.171240  10.350200   # C_2
 134 1 6   0.000000   3.179995  13.530195  10.350200   # C_2
 135 1 6   0.000000   0.000000   7.171240  13.530195   # C_2
 136 1 6   0.000000   0.000000   7.171240   7.171240   # C_2
 137 1 6   0.000000   0.000000  13.530195   7.171240   # C_2
 138 1 6   0.000000   0.000000  13.530195  13.530195   # C_2
 139 1 6   0.000000  13.530195   0.000000   7.171240   # C_2
 140 1 6   0.000000   7.171240   0.000000   7.171240   # C_2
 141 1 6   0.000000   7.171240   0.000000  13.530195   # C_2
 142 1 6   0.000000  13.530195   0.000000  13.530195   # C_2
 143 1 6   0.000000   7.171240   3.179995  10.350200   # C_2
 144 1 6   0.000000   7.171240  17.521440  10.350200   # C_2
 145 1 6   0.000000  13.530195  17.521440  10.350200   # C_2
 146 1 6   0.000000  13.530195   3.179995  10.350200   # C_2
 147 1 11   0.000000  10.350200  17.521440  13.530195   # C_2
 148 1 11   0.000000  10.350200  17.521440   7.171240   # C_2
 149 1 11   0.000000  10.350200   3.179995   7.171240   # C_2
 150 1 11   0.000000  10.350200   3.179995  13.530195   # C_2
 151 1 7   0.000000   4.243996   0.000000   4.243996   # C_R
 152 1 7   0.000000  16.457232   0.000000   4.243996   # C_R
 153 1 7   0.000000  16.457232   0.000000  16.457232   # C_R
 154 1 7   0.000000   4.243996   0.000000  16.457232   # C_R
 155 1 7   0.000000   0.000000   4.243996   4.243996   # C_R
 156 1 7   0.000000   0.000000   4.243996  16.457232   # C_R
 157 1 7   0.000000   0.000000  16.457232  16.457232   # C_R
 158 1 7   0.000000   0.000000  16.457232   4.243996   # C_R
 159 1 7   0.000000   4.243996  14.594196  10.350200   # C_R
 160 1 7   0.000000   4.243996   6.107032  10.350200   # C_R
 161 1 7   0.000000  16.457232   6.107032  10.350200   # C_R
 162 1 7   0.000000  16.457232  14.594196  10.350200   # C_R
 163 1 7   0.000000   0.000000  14.594196  14.594196   # C_R
 164 1 7   0.000000   0.000000  14.594196   6.107032   # C_R
 165 1 7   0.000000   0.000000   6.107032   6.107032   # C_R
 166 1 7   0.000000   0.000000   6.107032  14.594196   # C_R
 167 1 7   0.000000  14.594196   0.000000  14.594196   # C_R
 168 1 7   0.000000   6.107032   0.000000  14.594196   # C_R
 169 1 7   0.000000   6.107032   0.000000   6.107032   # C_R
 170 1 7   0.000000  14.594196   0.000000   6.107032   # C_R
 171 1 7   0.000000  14.594196   4.243996  10.350200   # C_R
 172 1 7   0.000000  14.594196  16.457232  10.350200   # C_R
 173 1 7   0.000000   6.107032  16.457232  10.350200   # C_R
 174 1 7   0.000000   6.107032   4.243996  10.350200   # C_R
 175 1 7   0.000000   5.537150   0.000000   3.817154   # C_R
 176 1 7   0.000000  15.163250   0.000000   3.817154   # C_R
 177 1 7   0.000000  15.163250   0.000000  16.883246   # C_R
 178 1 7   0.000000   5.537150   0.000000  16.883246   # C_R
 179 1 7   0.000000   0.000000   3.817154   5.537150   # C_R
 180 1 7   0.000000   0.000000   3.817154  15.163250   # C_R
 181 1 7   0.000000   0.000000  16.883246  15.163250   # C_R
 182 1 7   0.000000   0.000000  16.883246   5.537150   # C_R
 183 1 7   0.000000   0.000000   5.537150  16.883246   # C_R
 184 1 7   0.000000   0.000000  15.163250  16.883246   # C_R
 185 1 7   0.000000   0.000000  15.163250   3.817154   # C_R
 186 1 7   0.000000   0.000000   5.537150   3.817154   # C_R
 187 1 7   0.000000   3.817154   0.000000  15.163250   # C_R
 188 1 7   0.000000   3.817154   0.000000   5.537150   # C_R
 189 1 7   0.000000  16.883246   0.000000   5.537150   # C_R
 190 1 7   0.000000  16.883246   0.000000  15.163250   # C_R
 191 1 7   0.000000   3.817154  15.888385  10.350200   # C_R
 192 1 7   0.000000   3.817154   4.813050  10.350200   # C_R
 193 1 7   0.000000  16.883246   4.813050  10.350200   # C_R
 194 1 7   0.000000  16.883246  15.888385  10.350200   # C_R
 195 1 7   0.000000   0.000000  14.167354  15.888385   # C_R
 196 1 7   0.000000   0.000000  14.167354   4.813050   # C_R
 197 1 7   0.000000   0.000000   6.533046   4.813050   # C_R
 198 1 7   0.000000   0.000000   6.533046  15.888385   # C_R
 199 1 7   0.000000   0.000000  15.888385   6.533046   # C_R
 200 1 7   0.000000   0.000000   4.813050   6.533046   # C_R
 201 1 7   0.000000   0.000000   4.813050  14.167354   # C_R
 202 1 7   0.000000   0.000000  15.888385  14.167354   # C_R
 203 1 7   0.000000   5.537150  14.167354  10.350200   # C_R
 204 1 7   0.000000  15.163250  14.167354  10.350200   # C_R
 205 1 7   0.000000  15.163250   6.533046  10.350200   # C_R
 206 1 7   0.000000   5.537150   6.533046  10.350200   # C_R
 207 1 7   0.000000  15.888385   0.000000  14.167354   # C_R
 208 1 7   0.000000   4.813050   0.000000  14.167354   # C_R
 209 1 7   0.000000   4.813050   0.000000   6.533046   # C_R
 210 1 7   0.000000  15.888385   0.000000   6.533046   # C_R
 211 1 7   0.000000  14.167354   5.537150  10.350200   # C_R
 212 1 7   0.000000  14.167354  15.163250  10.350200   # C_R
 213 1 7   0.000000   6.533046  15.163250  10.350200   # C_R
 214 1 7   0.000000   6.533046   5.537150  10.350200   # C_R
 215 1 7   0.000000  15.888385   3.817154  10.350200   # C_R
 216 1 7   0.000000   4.813050   3.817154  10.350200   # C_R
 217 1 7   0.000000   4.813050  16.883246  10.350200   # C_R
 218 1 7   0.000000  15.888385  16.883246  10.350200   # C_R
 219 1 7   0.000000  14.167354   0.000000   4.813050   # C_R
 220 1 7   0.000000  14.167354   0.000000  15.888385   # C_R
 221 1 7   0.000000   6.533046   0.000000  15.888385   # C_R
 222 1 7   0.000000   6.533046   0.000000   4.813050   # C_R
 223 1 5   0.000000   5.776033   0.000000   2.812977   # H_
 224 1 5   0.000000  14.924367   0.000000   2.812977   # H_
 225 1 5   0.000000  14.924367   0.000000  17.887423   # H_
 226 1 5   0.000000   5.776033   0.000000  17.887423   # H_
 227 1 5   0.000000   0.000000   2.812977   5.776033   # H_
 228 1 5   0.000000   0.000000   2.812977  14.924367   # H_
 229 1 5   0.000000   0.000000  17.887423  14.924367   # H_
 230 1 5   0.000000   0.000000  17.887423   5.776033   # H_
 231 1 5   0.000000   0.000000   5.776033  17.887423   # H_
 232 1 5   0.000000   0.000000  14.924367  17.887423   # H_
 233 1 5   0.000000   0.000000  14.924367   2.812977   # H_
 234 1 5   0.000000   0.000000   5.776033   2.812977   # H_
 235 1 5   0.000000   2.812977   0.000000  14.924367   # H_
 236 1 5   0.000000   2.812977   0.000000   5.776033   # H_
 237 1 5   0.000000  17.887423   0.000000   5.776033   # H_
 238 1 5   0.000000  17.887423   0.000000  14.924367   # H_
 239 1 5   0.000000   2.812977  16.126233  10.350200   # H_
 240 1 5   0.000000   2.812977   4.574167  10.350200   # H_
 241 1 5   0.000000  17.887423   4.574167  10.350200   # H_
 242 1 5   0.000000  17.887423  16.126233  10.350200   # H_
 243 1 5   0.000000   0.000000  13.163177  16.126233   # H_
 244 1 5   0.000000   0.000000  13.163177   4.574167   # H_
 245 1 5   0.000000   0.000000   7.537223   4.574167   # H_
 246 1 5   0.000000   0.000000   7.537223  16.126233   # H_
 247 1 5   0.000000   0.000000  16.126233   7.537223   # H_
 248 1 5   0.000000   0.000000   4.574167   7.537223   # H_
 249 1 5   0.000000   0.000000   4.574167  13.163177   # H_
 250 1 5   0.000000   0.000000  16.126233  13.163177   # H_
 251 1 5   0.000000   5.776033  13.163177  10.350200   # H_
 252 1 5   0.000000  14.924367  13.163177  10.350200   # H_
 253 1 5   0.000000  14.924367   7.537223  10.350200   # H_
 254 1 5   0.000000   5.776033   7.537223  10.350200   # H_
 255 1 5   0.000000  16.126233   0.000000  13.163177   # H_
 256 1 5   0.000000   4.574167   0.000000  13.163177   # H_
 257 1 5   0.000000   4.574167   0.000000   7.537223   # H_
 258 1 5   0.000000  16.126233   0.000000   7.537223   # H_
 259 1 5   0.000000  13.163177   5.776033  10.350200   # H_
 260 1 5   0.000000  13.163177  14.924367  10.350200   # H_
 261 1 5   0.000000   7.537223  14.924367  10.350200   # H_
 262 1 5   0.000000   7.537223   5.776033  10.350200   # H_
 263 1 5   0.000000  16.126233   2.812977  10.350200   # H_
 264 1 5   0.000000   4.574167   2.812977  10.350200   # H_
 265 1 5   0.000000   4.574167  17.887423  10.350200   # H_
 266 1 5   0.000000  16.126233  17.887423  10.350200   # H_
 267 1 5   0.000000  13.163177   0.000000   4.574167   # H_
 268 1 5   0.000000  13.163177   0.000000  16.126233   # H_
 269 1 5   0.000000   7.537223   0.000000  16.126233   # H_
 270 1 5   0.000000   7.537223   0.000000   4.574167   # H_
 271 1 10   0.000000   4.243789   4.243789   0.000000   # H_
 272 1 10   0.000000   4.243582  16.457025   0.000000   # H_
 273 1 10   0.000000  16.457439  16.457439   0.000000   # H_
 274 1 10   0.000000  16.457439   4.243789   0.000000   # H_
 275 1 10   0.000000   4.243789  10.349579  14.593989   # H_
 276 1 10   0.000000  16.457439  10.349579  14.593782   # H_
 277 1 10   0.000000  16.457439  10.349579   6.106618   # H_
 278 1 10   0.000000   4.243789  10.349579   6.106411   # H_
 279 1 10   0.000000  10.350200   4.243996  14.593989   # H_
 280 1 10   0.000000  10.350200   4.243789   6.106411   # H_
 281 1 10   0.000000  10.350200  16.457025   6.106618   # H_
 282 1 10   0.000000  10.350200  16.457025  14.593782   # H_
 283 1 14   0.000000   1.764709   1.604902   1.586893   # H_
 284 1 14   0.000000   1.721445  18.845023  19.371434   # H_
 285 1 14   0.000000  19.292359   1.764709  18.936726   # H_
 286 1 14   0.000000  19.307884  18.871520   1.825361   # H_
 287 1 14   0.000000  19.095705  11.937093   8.585698   # H_
 288 1 14   0.000000   1.855377   9.021234   8.628548   # H_
 289 1 14   0.000000  18.936105   8.586526  11.758448   # H_
 290 1 14   0.000000   1.829294  12.175561  11.742509   # H_
 291 1 14   0.000000   8.745298   1.764709  11.937093   # H_
 292 1 14   0.000000  12.205577   1.721238   9.021234   # H_
 293 1 14   0.000000   8.585284  19.292359   8.586526   # H_
 294 1 14   0.000000  12.178873  19.307884  12.175561   # H_
 295 1 17   0.000000   2.481978  20.700400   0.000000   # Zr8f4
 296 1 17   0.000000  18.219250  20.700400   0.000000   # Zr8f4
 297 1 17   0.000000   0.000000  23.182378   0.000000   # Zr8f4
 298 1 17   0.000000   0.000000  38.919650   0.000000   # Zr8f4
 299 1 17   0.000000   0.000000  20.700400   2.481978   # Zr8f4
 300 1 17   0.000000   0.000000  20.700400  18.219250   # Zr8f4
 301 1 17   0.000000   2.481978  31.050600  10.350200   # Zr8f4
 302 1 17   0.000000  18.219250  31.050600  10.350200   # Zr8f4
 303 1 17   0.000000   0.000000  33.532578  10.350200   # Zr8f4
 304 1 17   0.000000   0.000000  28.568622  10.350200   # Zr8f4
 305 1 17   0.000000   0.000000  31.050600  12.832178   # Zr8f4
 306 1 17   0.000000   0.000000  31.050600   7.868222   # Zr8f4
 307 1 17   0.000000  12.832178  20.700400  10.350200   # Zr8f4
 308 1 17   0.000000   7.868222  20.700400  10.350200   # Zr8f4
 309 1 17   0.000000  10.350200  23.182378  10.350200   # Zr8f4
 310 1 17   0.000000  10.350200  38.919650  10.350200   # Zr8f4
 311 1 17   0.000000  10.350200  20.700400  12.832178   # Zr8f4
 312 1 17   0.000000  10.350200  20.700400   7.868222   # Zr8f4
 313 1 15   0.000000   3.529004  20.700400   1.972955   # O_2_M
 314 1 15   0.000000  17.172431  20.700400   1.972955   # O_2_M
 315 1 15   0.000000  17.172431  20.700400  18.728273   # O_2_M
 316 1 15   0.000000   3.529004  20.700400  18.728273   # O_2_M
 317 1 15   0.000000   1.972955  24.229404   0.000000   # O_2_M
 318 1 15   0.000000   1.972955  37.872831   0.000000   # O_2_M
 319 1 15   0.000000  18.728273  37.872831   0.000000   # O_2_M
 320 1 15   0.000000  18.728273  24.229404   0.000000   # O_2_M
 321 1 15   0.000000   0.000000  22.673355   3.529004   # O_2_M
 322 1 15   0.000000   0.000000  22.673355  17.172431   # O_2_M
 323 1 15   0.000000   0.000000  39.428673  17.172431   # O_2_M
 324 1 15   0.000000   0.000000  39.428673   3.529004   # O_2_M
 325 1 15   0.000000   0.000000  24.229404  18.728273   # O_2_M
 326 1 15   0.000000   0.000000  37.872831  18.728273   # O_2_M
 327 1 15   0.000000   0.000000  37.872831   1.972955   # O_2_M
 328 1 15   0.000000   0.000000  24.229404   1.972955   # O_2_M
 329 1 15   0.000000   3.529004  22.673355   0.000000   # O_2_M
 330 1 15   0.000000  17.172431  22.673355   0.000000   # O_2_M
 331 1 15   0.000000  17.172431  39.428673   0.000000   # O_2_M
 332 1 15   0.000000   3.529004  39.428673   0.000000   # O_2_M
 333 1 15   0.000000   1.972955  20.700400  17.172431   # O_2_M
 334 1 15   0.000000   1.972955  20.700400   3.529004   # O_2_M
 335 1 15   0.000000  18.728273  20.700400   3.529004   # O_2_M
 336 1 15   0.000000  18.728273  20.700400  17.172431   # O_2_M
 337 1 15   0.000000   3.529004  31.050600  12.323155   # O_2_M
 338 1 15   0.000000  17.172431  31.050600  12.323155   # O_2_M
 339 1 15   0.000000  17.172431  31.050600   8.377245   # O_2_M
 340 1 15   0.000000   3.529004  31.050600   8.377245   # O_2_M
 341 1 15   0.000000   1.972955  34.579604  10.350200   # O_2_M
 342 1 15   0.000000   1.972955  27.521596  10.350200   # O_2_M
 343 1 15   0.000000  18.728273  27.521596  10.350200   # O_2_M
 344 1 15   0.000000  18.728273  34.579604  10.350200   # O_2_M
 345 1 15   0.000000   0.000000  33.023555  13.879204   # O_2_M
 346 1 15   0.000000   0.000000  33.023555   6.821196   # O_2_M
 347 1 15   0.000000   0.000000  29.077645   6.821196   # O_2_M
 348 1 15   0.000000   0.000000  29.077645  13.879204   # O_2_M
 349 1 15   0.000000   0.000000  34.579604   8.377245   # O_2_M
 350 1 15   0.000000   0.000000  27.521596   8.377245   # O_2_M
 351 1 15   0.000000   0.000000  27.521596  12.323155   # O_2_M
 352 1 15   0.000000   0.000000  34.579604  12.323155   # O_2_M
 353 1 15   0.000000   3.529004  33.023555  10.350200   # O_2_M
 354 1 15   0.000000  17.172431  33.023555  10.350200   # O_2_M
 355 1 15   0.000000  17.172431  29.077645  10.350200   # O_2_M
 356 1 15   0.000000   3.529004  29.077645  10.350200   # O_2_M
 357 1 15   0.000000   1.972955  31.050600   6.821196   # O_2_M
 358 1 15   0.000000   1.972955  31.050600  13.879204   # O_2_M
 359 1 15   0.000000  18.728273  31.050600  13.879204   # O_2_M
 360 1 15   0.000000  18.728273  31.050600   6.821196   # O_2_M
 361 1 15   0.000000  13.879204  20.700400  12.323155   # O_2_M
 362 1 15   0.000000   6.821196  20.700400  12.323155   # O_2_M
 363 1 15   0.000000   6.821196  20.700400   8.377245   # O_2_M
 364 1 15   0.000000  13.879204  20.700400   8.377245   # O_2_M
 365 1 15   0.000000  12.323155  24.229404  10.350200   # O_2_M
 366 1 15   0.000000  12.323155  37.872831  10.350200   # O_2_M
 367 1 15   0.000000   8.377245  37.872831  10.350200   # O_2_M
 368 1 15   0.000000   8.377245  24.229404  10.350200   # O_2_M
 369 1 15   0.000000  10.350200  22.673355  13.879204   # O_2_M
 370 1 15   0.000000  10.350200  22.673355   6.821196   # O_2_M
 371 1 15   0.000000  10.350200  39.428673   6.821196   # O_2_M
 372 1 15   0.000000  10.350200  39.428673  13.879204   # O_2_M
 373 1 15   0.000000  10.350200  24.229404   8.377245   # O_2_M
 374 1 15   0.000000  10.350200  37.872831   8.377245   # O_2_M
 375 1 15   0.000000  10.350200  37.872831  12.323155   # O_2_M
 376 1 15   0.000000  10.350200  24.229404  12.323155   # O_2_M
 377 1 15   0.000000  13.879204  22.673355  10.350200   # O_2_M
 378 1 15   0.000000   6.821196  22.673355  10.350200   # O_2_M
 379 1 15   0.000000   6.821196  39.428673  10.350200   # O_2_M
 380 1 15   0.000000  13.879204  39.428673  10.350200   # O_2_M
 381 1 15   0.000000  12.323155  20.700400   6.821196   # O_2_M
 382 1 15   0.000000  12.323155  20.700400  13.879204   # O_2_M
 383 1 15   0.000000   8.377245  20.700400  13.879204   # O_2_M
 384 1 15   0.000000   8.377245  20.700400   6.821196   # O_2_M
 385 1 16   0.000000   1.161085  40.239715  19.539315   # O_3_f
 386 1 16   0.000000  19.539315  21.861485  19.539315   # O_3_f
 387 1 16   0.000000  19.539315  40.239715   1.161085   # O_3_f
 388 1 16   0.000000   1.161085  21.861485   1.161085   # O_3_f
 389 1 16   0.000000  19.539315  21.861485   1.161085   # O_3_f
 390 1 16   0.000000   1.161085  40.239715   1.161085   # O_3_f
 391 1 16   0.000000  19.539315  40.239715  19.539315   # O_3_f
 392 1 16   0.000000   1.161085  21.861485  19.539315   # O_3_f
 393 1 16   0.000000   1.161085  29.889515   9.189115   # O_3_f
 394 1 16   0.000000  19.539315  32.211685   9.189115   # O_3_f
 395 1 16   0.000000  19.539315  29.889515  11.511285   # O_3_f
 396 1 16   0.000000   1.161085  32.211685  11.511285   # O_3_f
 397 1 16   0.000000  19.539315  32.211685  11.511285   # O_3_f
 398 1 16   0.000000   1.161085  29.889515  11.511285   # O_3_f
 399 1 16   0.000000  19.539315  29.889515   9.189115   # O_3_f
 400 1 16   0.000000   1.161085  32.211685   9.189115   # O_3_f
 401 1 16   0.000000  11.511285  40.239715   9.189115   # O_3_f
 402 1 16   0.000000   9.189115  21.861485   9.189115   # O_3_f
 403 1 16   0.000000   9.189115  40.239715  11.511285   # O_3_f
 404 1 16   0.000000  11.511285  21.861485  11.511285   # O_3_f
 405 1 16   0.000000   9.189115  21.861485  11.511285   # O_3_f
 406 1 16   0.000000  11.511285  40.239715  11.511285   # O_3_f
 407 1 16   0.000000   9.189115  40.239715   9.189115   # O_3_f
 408 1 16   0.000000  11.511285  21.861485   9.189115   # O_3_f
 409 1 6   0.000000   3.179995  20.700400  17.521440   # C_2
 410 1 6   0.000000  17.521440  20.700400  17.521440   # C_2
 411 1 6   0.000000  17.521440  20.700400   3.179995   # C_2
 412 1 6   0.000000   3.179995  20.700400   3.179995   # C_2
 413 1 11   0.000000  17.521440  23.880395   0.000000   # C_2
 414 1 11   0.000000  17.521440  38.221840   0.000000   # C_2
 415 1 11   0.000000   3.179995  38.221840   0.000000   # C_2
 416 1 11   0.000000   3.179995  23.880395   0.000000   # C_2
 417 1 6   0.000000   0.000000  38.221840   3.179995   # C_2
 418 1 6   0.000000   0.000000  38.221840  17.521440   # C_2
 419 1 6   0.000000   0.000000  23.880395  17.521440   # C_2
 420 1 6   0.000000   0.000000  23.880395   3.179995   # C_2
 421 1 11   0.000000   3.179995  31.050600   7.171240   # C_2
 422 1 11   0.000000  17.521440  31.050600   7.171240   # C_2
 423 1 11   0.000000  17.521440  31.050600  13.530195   # C_2
 424 1 11   0.000000   3.179995  31.050600  13.530195   # C_2
 425 1 6   0.000000  17.521440  34.230595  10.350200   # C_2
 426 1 6   0.000000  17.521440  27.871640  10.350200   # C_2
 427 1 6   0.000000   3.179995  27.871640  10.350200   # C_2
 428 1 6   0.000000   3.179995  34.230595  10.350200   # C_2
 429 1 6   0.000000   0.000000  27.871640  13.530195   # C_2
 430 1 6   0.000000   0.000000  27.871640   7.171240   # C_2
 431 1 6   0.000000   0.000000  34.230595   7.171240   # C_2
 432 1 6   0.000000   0.000000  34.230595  13.530195   # C_2
 433 1 6   0.000000  13.530195  20.700400   7.171240   # C_2
 434 1 6   0.000000   7.171240  20.700400   7.171240   # C_2