 (written by mofun)

9976 atoms
13064 bonds
34920 angles
16576 dihedrals
0 impropers

17 atom types
11 bond types
14 angle types
10 dihedral types
   0.000000  62.101200 xlo xhi
   0.000000  62.101200 ylo yhi
   0.000000  62.101200 zlo zhi

Masses

 1  91.224000   # Zr3+4
 2  15.999400   # O_3
 3  12.010700   # C_3
 4   1.007940   # H_
 5   1.007940   # H_
 6  12.010700   # C_2
 7  12.010700   # C_R
 8  15.999400   # O_2_M
 9  91.224000   # Zr8f4
 10   1.007940   # H_
 11  15.999400   # O_2_M
 12  15.999400   # O_3_f
 13  91.224000   # Zr8f4
 14   1.007940   # H_
 15  12.010700   # C_2
 16  15.999400   # O_2_M
 17  91.224000   # Zr8f4

Pair Coeffs

 1   0.069000   2.783168 # Zr3+4
 2   0.060000   3.118146 # O_3
 3   0.105000   3.430851 # C_3
 4   0.044000   2.571134 # H_
 5 0.044000 2.571134   # H_
 6 0.105000 3.430851   # C_2
 7 0.105000 3.430851   # C_R
 8 0.060000 3.118146   # O_2_M
 9 0.069000 2.783168   # Zr8f4
 10 0.044000 2.571134   # H_
 11 0.060000 3.118146   # O_2_M
 12 0.060000 3.118146   # O_3_f
 13 0.069000 2.783168   # Zr8f4
 14 0.044000 2.571134   # H_
 15 0.105000 3.430851   # C_2
 16 0.060000 3.118146   # O_2_M
 17 0.069000 2.783168   # Zr8f4

Bond Coeffs

 1 199.942436 2.410484   # O_2_M Zr8f4
 2 462.655054 1.379256   # C_R C_R
 3 389.261715 1.461000   # C_2 C_R
 4 709.805345 1.271799   # C_2 O_2_M
 5 357.440381 1.081418   # C_R H_
 6 199.959824 2.410484   # O_3_f Zr8f4
 7 199.942436 2.410484   # O_2_M Zr8f4
 8 602.435128 0.966432   # H_ O_3_f
 9 199.942436 2.410484   # O_2_M Zr8f4
 10 709.805345 1.271799   # C_2 O_2_M
 11 354.483902 1.084416   # C_2 H_

Angle Coeffs

 1 cosine/periodic  79.266221  -1  3   # C_2 O_2_M Zr8f4
 2 cosine/periodic  101.852144  -1  3   # C_2 C_R C_R
 3 cosine/periodic  111.297508  -1  3   # C_R C_R C_R
 4 cosine/periodic  57.289016  -1  3   # C_R C_R H_
 5 cosine/periodic  136.830763  -1  3   # C_R C_2 O_2_M
 6 cosine/periodic  205.385405  -1  3   # O_2_M C_2 O_2_M
 7 fourier  76.804805  0.343737  0.374972  0.281246   # O_3_f Zr8f4 O_3_f
 8 fourier  76.798126  0.343737  0.374972  0.281246   # O_2_M Zr8f4 O_3_f
 9 fourier  76.791448  0.343737  0.374972  0.281246   # O_2_M Zr8f4 O_2_M
 10 fourier  195.233589  0.343737  0.374972  0.281246   # Zr8f4 O_3_f Zr8f4
 11 fourier  78.498356  0.343737  0.374972  0.281246   # H_ O_3_f Zr8f4
 12 cosine/periodic  79.266221  -1  3   # C_2 O_2_M Zr8f4
 13 cosine/periodic  205.385405  -1  3   # O_2_M C_2 O_2_M
 14 cosine/periodic  79.339562  -1  3   # H_ C_2 O_2_M

Dihedral Coeffs

 1 6.737110 -1 2   # C_R C_2 O_2_M Zr8f4 M=2
 2 6.737110 -1 2   # O_2_M C_2 O_2_M Zr8f4 M=2
 3 3.368555 -1 2   # C_2 C_R C_R C_R M=4
 4 3.368555 -1 2   # C_2 C_R C_R H_ M=4
 5 3.368555 -1 2   # C_R C_R C_R C_R M=4
 6 3.368555 -1 2   # C_R C_R C_R H_ M=4
 7 1.250000 -1 2   # C_R C_R C_2 O_2_M M=4
 8 3.368555 -1 2   # H_ C_R C_R H_ M=4
 9 6.737110 -1 2   # O_2_M C_2 O_2_M Zr8f4 M=2
 10 6.737110 -1 2   # H_ C_2 O_2_M Zr8f4 M=2

Atoms

 1 1 17   0.000000   2.481978   0.000000   0.000000   # Zr8f4
 2 1 17   0.000000  18.219250   0.000000   0.000000   # Zr8f4
 3 1 17   0.000000   0.000000   2.481978   0.000000   # Zr8f4
 4 1 17   0.000000   0.000000  18.219250   0.000000   # Zr8f4
 5 1 17   0.000000   0.000000   0.000000   2.481978   # Zr8f4
 6 1 17   0.000000   0.000000   0.000000  18.219250   # Zr8f4
 7 1 17   0.000000   2.481978  10.350200  10.350200   # Zr8f4
 8 1 17   0.000000  18.219250  10.350200  10.350200   # Zr8f4
 9 1 17   0.000000   0.000000  12.832178  10.350200   # Zr8f4
 10 1 17   0.000000   0.000000   7.868222  10.350200   # Zr8f4
 11 1 17   0.000000   0.000000  10.350200  12.832178   # Zr8f4
 12 1 13   0.000000   0.000000  10.350200   7.868222   # Zr8f4
 13 1 17   0.000000  12.832178   0.000000  10.350200   # Zr8f4
 14 1 17   0.000000   7.868222   0.000000  10.350200   # Zr8f4
 15 1 17   0.000000  10.350200   2.481978  10.350200   # Zr8f4
 16 1 17   0.000000  10.350200  18.219250  10.350200   # Zr8f4
 17 1 17   0.000000  10.350200   0.000000  12.832178   # Zr8f4
 18 1 17   0.000000  10.350200   0.000000   7.868222   # Zr8f4
 19 1 17   0.000000  12.832178  10.350200   0.000000   # Zr8f4
 20 1 17   0.000000   7.868222  10.350200   0.000000   # Zr8f4
 21 1 17   0.000000  10.350200  12.832178   0.000000   # Zr8f4
 22 1 17   0.000000  10.350200   7.868222   0.000000   # Zr8f4
 23 1 17   0.000000  10.350200  10.350200   2.481978   # Zr8f4
 24 1 17   0.000000  10.350200  10.350200  18.219250   # Zr8f4
 25 1 16   0.000000   3.529004   0.000000   1.972955   # O_2_M
 26 1 11   0.000000  17.172431   0.000000   1.972955   # O_2_M
 27 1 16   0.000000  17.172431   0.000000  18.728273   # O_2_M
 28 1 16   0.000000   3.529004   0.000000  18.728273   # O_2_M
 29 1 11   0.000000   1.972955   3.529004   0.000000   # O_2_M
 30 1 11   0.000000   1.972955  17.172431   0.000000   # O_2_M
 31 1 16   0.000000  18.728273  17.172431   0.000000   # O_2_M
 32 1 11   0.000000  18.728273   3.529004   0.000000   # O_2_M
 33 1 11   0.000000   0.000000   1.972955   3.529004   # O_2_M
 34 1 11   0.000000   0.000000   1.972955  17.172431   # O_2_M
 35 1 16   0.000000   0.000000  18.728273  17.172431   # O_2_M
 36 1 11   0.000000   0.000000  18.728273   3.529004   # O_2_M
 37 1 11   0.000000   0.000000   3.529004  18.728273   # O_2_M
 38 1 16   0.000000   0.000000  17.172431  18.728273   # O_2_M
 39 1 11   0.000000   0.000000  17.172431   1.972955   # O_2_M
 40 1 11   0.000000   0.000000   3.529004   1.972955   # O_2_M
 41 1 11   0.000000   3.529004   1.972955   0.000000   # O_2_M
 42 1 11   0.000000  17.172431   1.972955   0.000000   # O_2_M
 43 1 16   0.000000  17.172431  18.728273   0.000000   # O_2_M
 44 1 11   0.000000   3.529004  18.728273   0.000000   # O_2_M
 45 1 16   0.000000   1.972955   0.000000  17.172431   # O_2_M
 46 1 16   0.000000   1.972955   0.000000   3.529004   # O_2_M
 47 1 11   0.000000  18.728273   0.000000   3.529004   # O_2_M
 48 1 16   0.000000  18.728273   0.000000  17.172431   # O_2_M
 49 1 11   0.000000   3.529004  10.350200  12.323155   # O_2_M
 50 1 16   0.000000  17.172431  10.350200  12.323155   # O_2_M
 51 1 16   0.000000  17.172431  10.350200   8.377245   # O_2_M
 52 1 11   0.000000   3.529004  10.350200   8.377245   # O_2_M
 53 1 11   0.000000   1.972955  13.879204  10.350200   # O_2_M
 54 1 16   0.000000   1.972955   6.821196  10.350200   # O_2_M
 55 1 16   0.000000  18.728273   6.821196  10.350200   # O_2_M
 56 1 16   0.000000  18.728273  13.879204  10.350200   # O_2_M
 57 1 16   0.000000   0.000000  12.323155  13.879204   # O_2_M
 58 1 11   0.000000   0.000000  12.323155   6.821196   # O_2_M
 59 1 11   0.000000   0.000000   8.377245   6.821196   # O_2_M
 60 1 11   0.000000   0.000000   8.377245  13.879204   # O_2_M
 61 1 11   0.000000   0.000000  13.879204   8.377245   # O_2_M
 62 1 11   0.000000   0.000000   6.821196   8.377245   # O_2_M
 63 1 11   0.000000   0.000000   6.821196  12.323155   # O_2_M
 64 1 16   0.000000   0.000000  13.879204  12.323155   # O_2_M
 65 1 11   0.000000   3.529004  12.323155  10.350200   # O_2_M
 66 1 16   0.000000  17.172431  12.323155  10.350200   # O_2_M
 67 1 16   0.000000  17.172431   8.377245  10.350200   # O_2_M
 68 1 16   0.000000   3.529004   8.377245  10.350200   # O_2_M
 69 1 11   0.000000   1.972955  10.350200   6.821196   # O_2_M
 70 1 11   0.000000   1.972955  10.350200  13.879204   # O_2_M
 71 1 16   0.000000  18.728273  10.350200  13.879204   # O_2_M
 72 1 16   0.000000  18.728273  10.350200   6.821196   # O_2_M
 73 1 16   0.000000  13.879204   0.000000  12.323155   # O_2_M
 74 1 16   0.000000   6.821196   0.000000  12.323155   # O_2_M
 75 1 16   0.000000   6.821196   0.000000   8.377245   # O_2_M
 76 1 11   0.000000  13.879204   0.000000   8.377245   # O_2_M
 77 1 16   0.000000  12.323155   3.529004  10.350200   # O_2_M
 78 1 16   0.000000  12.323155  17.172431  10.350200   # O_2_M
 79 1 11   0.000000   8.377245  17.172431  10.350200   # O_2_M
 80 1 16   0.000000   8.377245   3.529004  10.350200   # O_2_M
 81 1 11   0.000000  10.350200   1.972955  13.879204   # O_2_M
 82 1 16   0.000000  10.350200   1.972955   6.821196   # O_2_M
 83 1 16   0.000000  10.350200  18.728273   6.821196   # O_2_M
 84 1 16   0.000000  10.350200  18.728273  13.879204   # O_2_M
 85 1 16   0.000000  10.350200   3.529004   8.377245   # O_2_M
 86 1 16   0.000000  10.350200  17.172431   8.377245   # O_2_M
 87 1 16   0.000000  10.350200  17.172431  12.323155   # O_2_M
 88 1 11   0.000000  10.350200   3.529004  12.323155   # O_2_M
 89 1 16   0.000000  13.879204   1.972955  10.350200   # O_2_M
 90 1 16   0.000000   6.821196   1.972955  10.350200   # O_2_M
 91 1 11   0.000000   6.821196  18.728273  10.350200   # O_2_M
 92 1 16   0.000000  13.879204  18.728273  10.350200   # O_2_M
 93 1 11   0.000000  12.323155   0.000000   6.821196   # O_2_M
 94 1 16   0.000000  12.323155   0.000000  13.879204   # O_2_M
 95 1 16   0.000000   8.377245   0.000000  13.879204   # O_2_M
 96 1 16   0.000000   8.377245   0.000000   6.821196   # O_2_M
 97 1 16   0.000000  13.879204  10.350200   1.972955   # O_2_M
 98 1 11   0.000000   6.821196  10.350200   1.972955   # O_2_M
 99 1 11   0.000000   6.821196  10.350200  18.728273   # O_2_M
 100 1 16   0.000000  13.879204  10.350200  18.728273   # O_2_M
 101 1 16   0.000000  12.323155  13.879204   0.000000   # O_2_M
 102 1 11   0.000000  12.323155   6.821196   0.000000   # O_2_M
 103 1 11   0.000000   8.377245   6.821196   0.000000   # O_2_M
 104 1 11   0.000000   8.377245  13.879204   0.000000   # O_2_M
 105 1 16   0.000000  10.350200  12.323155   3.529004   # O_2_M
 106 1 16   0.000000  10.350200  12.323155  17.172431   # O_2_M
 107 1 11   0.000000  10.350200   8.377245  17.172431   # O_2_M
 108 1 16   0.000000  10.350200   8.377245   3.529004   # O_2_M
 109 1 16   0.000000  10.350200  13.879204  18.728273   # O_2_M
 110 1 11   0.000000  10.350200   6.821196  18.728273   # O_2_M
 111 1 16   0.000000  10.350200   6.821196   1.972955   # O_2_M
 112 1 16   0.000000  10.350200  13.879204   1.972955   # O_2_M
 113 1 16   0.000000  13.879204  12.323155   0.000000   # O_2_M
 114 1 11   0.000000   6.821196  12.323155   0.000000   # O_2_M
 115 1 11   0.000000   6.821196   8.377245   0.000000   # O_2_M
 116 1 11   0.000000  13.879204   8.377245   0.000000   # O_2_M
 117 1 16   0.000000  12.323155  10.350200  17.172431   # O_2_M
 118 1 16   0.000000  12.323155  10.350200   3.529004   # O_2_M
 119 1 11   0.000000   8.377245  10.350200   3.529004   # O_2_M
 120 1 11   0.000000   8.377245  10.350200  17.172431   # O_2_M
 121 1 12   0.000000   1.161085  19.539315  19.539315   # O_3_f
 122 1 12   0.000000  19.539315   1.161085  19.539315   # O_3_f
 123 1 12   0.000000  19.539315  19.539315   1.161085   # O_3_f
 124 1 12   0.000000   1.161085   1.161085   1.161085   # O_3_f
 125 1 12   0.000000  19.539315   1.161085   1.161085   # O_3_f
 126 1 12   0.000000   1.161085  19.539315   1.161085   # O_3_f
 127 1 12   0.000000  19.539315  19.539315  19.539315   # O_3_f
 128 1 12   0.000000   1.161085   1.161085  19.539315   # O_3_f
 129 1 12   0.000000   1.161085   9.189115   9.189115   # O_3_f
 130 1 12   0.000000  19.539315  11.511285   9.189115   # O_3_f
 131 1 12   0.000000  19.539315   9.189115  11.511285   # O_3_f
 132 1 12   0.000000   1.161085  11.511285  11.511285   # O_3_f
 133 1 12   0.000000  19.539315  11.511285  11.511285   # O_3_f
 134 1 12   0.000000   1.161085   9.189115  11.511285   # O_3_f
 135 1 12   0.000000  19.539315   9.189115   9.189115   # O_3_f
 136 1 12   0.000000   1.161085  11.511285   9.189115   # O_3_f
 137 1 12   0.000000  11.511285  19.539315   9.189115   # O_3_f
 138 1 12   0.000000   9.189115   1.161085   9.189115   # O_3_f
 139 1 12   0.000000   9.189115  19.539315  11.511285   # O_3_f
 140 1 12   0.000000  11.511285   1.161085  11.511285   # O_3_f
 141 1 12   0.000000   9.189115   1.161085  11.511285   # O_3_f
 142 1 12   0.000000  11.511285  19.539315  11.511285   # O_3_f
 143 1 12   0.000000   9.189115  19.539315   9.189115   # O_3_f
 144 1 12   0.000000  11.511285   1.161085   9.189115   # O_3_f
 145 1 12   0.000000  11.511285   9.189115  19.539315   # O_3_f
 146 1 12   0.000000   9.189115  11.511285  19.539315   # O_3_f
 147 1 12   0.000000   9.189115   9.189115   1.161085   # O_3_f
 148 1 12   0.000000  11.511285  11.511285   1.161085   # O_3_f
 149 1 12   0.000000   9.189115  11.511285   1.161085   # O_3_f
 150 1 12   0.000000  11.511285   9.189115   1.161085   # O_3_f
 151 1 12   0.000000   9.189115   9.189115  19.539315   # O_3_f
 152 1 12   0.000000  11.511285  11.511285  19.539315   # O_3_f
 153 1 15   0.000000   3.179995   0.000000  17.521440   # C_2
 154 1 15   0.000000  17.521440   0.000000  17.521440   # C_2
 155 1 6   0.000000  17.521440   0.000000   3.179995   # C_2
 156 1 15   0.000000   3.179995   0.000000   3.179995   # C_2
 157 1 6   0.000000  17.521440   3.179995   0.000000   # C_2
 158 1 15   0.000000  17.521440  17.521440   0.000000   # C_2
 159 1 6   0.000000   3.179995  17.521440   0.000000   # C_2
 160 1 6   0.000000   3.179995   3.179995   0.000000   # C_2
 161 1 6   0.000000   0.000000  17.521440   3.179995   # C_2
 162 1 15   0.000000   0.000000  17.521440  17.521440   # C_2
 163 1 6   0.000000   0.000000   3.179995  17.521440   # C_2
 164 1 6   0.000000   0.000000   3.179995   3.179995   # C_2
 165 1 6   0.000000   3.179995  10.350200   7.171240   # C_2
 166 1 15   0.000000  17.521440  10.350200   7.171240   # C_2
 167 1 15   0.000000  17.521440  10.350200  13.530195   # C_2
 168 1 6   0.000000   3.179995  10.350200  13.530195   # C_2
 169 1 15   0.000000  17.521440  13.530195  10.350200   # C_2
 170 1 15   0.000000  17.521440   7.171240  10.350200   # C_2
 171 1 15   0.000000   3.179995   7.171240  10.350200   # C_2
 172 1 6   0.000000   3.179995  13.530195  10.350200   # C_2
 173 1 6   0.000000   0.000000   7.171240  13.530195   # C_2
 174 1 6   0.000000   0.000000   7.171240   7.171240   # C_2
 175 1 6   0.000000   0.000000  13.530195   7.171240   # C_2
 176 1 15   0.000000   0.000000  13.530195  13.530195   # C_2
 177 1 6   0.000000  13.530195   0.000000   7.171240   # C_2
 178 1 15   0.000000   7.171240   0.000000   7.171240   # C_2
 179 1 15   0.000000   7.171240   0.000000  13.530195   # C_2
 180 1 15   0.000000  13.530195   0.000000  13.530195   # C_2
 181 1 15   0.000000   7.171240   3.179995  10.350200   # C_2
 182 1 6   0.000000   7.171240  17.521440  10.350200   # C_2
 183 1 15   0.000000  13.530195  17.521440  10.350200   # C_2
 184 1 15   0.000000  13.530195   3.179995  10.350200   # C_2
 185 1 15   0.000000  10.350200  17.521440  13.530195   # C_2
 186 1 15   0.000000  10.350200  17.521440   7.171240   # C_2
 187 1 15   0.000000  10.350200   3.179995   7.171240   # C_2
 188 1 6   0.000000  10.350200   3.179995  13.530195   # C_2
 189 1 15   0.000000  13.530195  10.350200  17.521440   # C_2
 190 1 6   0.000000   7.171240  10.350200  17.521440   # C_2
 191 1 6   0.000000   7.171240  10.350200   3.179995   # C_2
 192 1 15   0.000000  13.530195  10.350200   3.179995   # C_2
 193 1 6   0.000000   7.171240  13.530195   0.000000   # C_2
 194 1 6   0.000000   7.171240   7.171240   0.000000   # C_2
 195 1 6   0.000000  13.530195   7.171240   0.000000   # C_2
 196 1 15   0.000000  13.530195  13.530195   0.000000   # C_2
 197 1 15   0.000000  10.350200   7.171240   3.179995   # C_2
 198 1 6   0.000000  10.350200   7.171240  17.521440   # C_2
 199 1 15   0.000000  10.350200  13.530195  17.521440   # C_2
 200 1 15   0.000000  10.350200  13.530195   3.179995   # C_2
 201 1 7   0.000000  16.457232   0.000000   4.243996   # C_R
 202 1 7   0.000000   4.243996   4.243996   0.000000   # C_R
 203 1 7   0.000000   4.243996  16.457232   0.000000   # C_R
 204 1 7   0.000000  16.457232   4.243996   0.000000   # C_R
 205 1 7   0.000000   0.000000   4.243996   4.243996   # C_R
 206 1 7   0.000000   0.000000   4.243996  16.457232   # C_R
 207 1 7   0.000000   0.000000  16.457232   4.243996   # C_R
 208 1 7   0.000000   4.243996  10.350200  14.594196   # C_R
 209 1 7   0.000000   4.243996  10.350200   6.107032   # C_R
 210 1 7   0.000000   4.243996  14.594196  10.350200   # C_R
 211 1 7   0.000000   0.000000  14.594196   6.107032   # C_R
 212 1 7   0.000000   0.000000   6.107032   6.107032   # C_R
 213 1 7   0.000000   0.000000   6.107032  14.594196   # C_R
 214 1 7   0.000000  14.594196   0.000000   6.107032   # C_R
 215 1 7   0.000000   6.107032  16.457232  10.350200   # C_R
 216 1 7   0.000000  10.350200   4.243996  14.594196   # C_R
 217 1 7   0.000000   6.107032  10.350200   4.243996   # C_R
 218 1 7   0.000000   6.107032  10.350200  16.457232   # C_R
 219 1 7   0.000000  14.594196   6.107032   0.000000   # C_R
 220 1 7   0.000000   6.107032   6.107032   0.000000   # C_R
 221 1 7   0.000000   6.107032  14.594196   0.000000   # C_R
 222 1 7   0.000000  10.350200   6.107032  16.457232   # C_R
 223 1 7   0.000000  15.163250   0.000000   3.817154   # C_R
 224 1 7   0.000000   3.817154   5.537150   0.000000   # C_R
 225 1 7   0.000000   3.817154  15.163250   0.000000   # C_R
 226 1 7   0.000000  16.883246   5.537150   0.000000   # C_R
 227 1 7   0.000000   0.000000   3.817154   5.537150   # C_R
 228 1 7   0.000000   0.000000   3.817154  15.163250   # C_R
 229 1 7   0.000000   0.000000  16.883246   5.537150   # C_R
 230 1 7   0.000000   0.000000   5.537150  16.883246   # C_R
 231 1 7   0.000000   0.000000  15.163250   3.817154   # C_R
 232 1 7   0.000000   0.000000   5.537150   3.817154   # C_R
 233 1 7   0.000000   5.537150   3.817154   0.000000   # C_R
 234 1 7   0.000000  15.163250   3.817154   0.000000   # C_R
 235 1 7   0.000000   5.537150  16.883246   0.000000   # C_R
 236 1 7   0.000000  16.883246   0.000000   5.537150   # C_R
 237 1 7   0.000000   5.537150  10.350200  14.167354   # C_R
 238 1 7   0.000000   5.537150  10.350200   6.533046   # C_R
 239 1 7   0.000000   3.817154  15.888385  10.350200   # C_R
 240 1 7   0.000000   0.000000  14.167354   4.813050   # C_R
 241 1 7   0.000000   0.000000   6.533046   4.813050   # C_R
 242 1 7   0.000000   0.000000   6.533046  15.888385   # C_R
 243 1 7   0.000000   0.000000  15.888385   6.533046   # C_R
 244 1 7   0.000000   0.000000   4.813050   6.533046   # C_R
 245 1 7   0.000000   0.000000   4.813050  14.167354   # C_R
 246 1 7   0.000000   5.537150  14.167354  10.350200   # C_R
 247 1 7   0.000000   3.817154  10.350200   4.813050   # C_R
 248 1 7   0.000000   3.817154  10.350200  15.888385   # C_R
 249 1 7   0.000000  15.888385   0.000000   6.533046   # C_R
 250 1 7   0.000000   6.533046  15.163250  10.350200   # C_R
 251 1 7   0.000000  10.350200   3.817154  15.888385   # C_R
 252 1 7   0.000000  10.350200   5.537150  14.167354   # C_R
 253 1 7   0.000000   4.813050  16.883246  10.350200   # C_R
 254 1 7   0.000000  14.167354   0.000000   4.813050   # C_R
 255 1 7   0.000000   4.813050  10.350200   3.817154   # C_R
 256 1 7   0.000000   4.813050  10.350200  16.883246   # C_R
 257 1 7   0.000000  14.167354   4.813050   0.000000   # C_R
 258 1 7   0.000000   6.533046   4.813050   0.000000   # C_R
 259 1 7   0.000000   6.533046  15.888385   0.000000   # C_R
 260 1 7   0.000000  10.350200   6.533046  15.163250   # C_R
 261 1 7   0.000000  10.350200   4.813050  16.883246   # C_R
 262 1 7   0.000000   4.813050  14.167354   0.000000   # C_R
 263 1 7   0.000000   4.813050   6.533046   0.000000   # C_R
 264 1 7   0.000000  15.888385   6.533046   0.000000   # C_R
 265 1 7   0.000000   6.533046  10.350200   5.537150   # C_R
 266 1 7   0.000000   6.533046  10.350200  15.163250   # C_R
 267 1 5   0.000000  14.924367   0.000000   2.812977   # H_
 268 1 5   0.000000   2.812977   5.776033   0.000000   # H_
 269 1 5   0.000000   2.812977  14.924367   0.000000   # H_
 270 1 5   0.000000  17.887423   5.776033   0.000000   # H_
 271 1 5   0.000000   0.000000   2.812977   5.776033   # H_
 272 1 5   0.000000   0.000000   2.812977  14.924367   # H_
 273 1 5   0.000000   0.000000  17.887423   5.776033   # H_
 274 1 5   0.000000   0.000000   5.776033  17.887423   # H_
 275 1 5   0.000000   0.000000  14.924367   2.812977   # H_
 276 1 5   0.000000   0.000000   5.776033   2.812977   # H_
 277 1 5   0.000000   5.776033   2.812977   0.000000   # H_
 278 1 5   0.000000  14.924367   2.812977   0.000000   # H_
 279 1 5   0.000000   5.776033  17.887423   0.000000   # H_
 280 1 5   0.000000  17.887423   0.000000   5.776033   # H_
 281 1 5   0.000000   5.776033  10.350200  13.163177   # H_
 282 1 5   0.000000   5.776033  10.350200   7.537223   # H_
 283 1 5   0.000000   2.812977  16.126233  10.350200   # H_
 284 1 5   0.000000   0.000000  13.163177   4.574167   # H_
 285 1 5   0.000000   0.000000   7.537223   4.574167   # H_
 286 1 5   0.000000   0.000000   7.537223  16.126233   # H_
 287 1 5   0.000000   0.000000  16.126233   7.537223   # H_
 288 1 5   0.000000   0.000000   4.574167   7.537223   # H_
 289 1 5   0.000000   0.000000   4.574167  13.163177   # H_
 290 1 5   0.000000   5.776033  13.163177  10.350200   # H_
 291 1 5   0.000000   2.812977  10.350200   4.574167   # H_
 292 1 5   0.000000   2.812977  10.350200  16.126233   # H_
 293 1 5   0.000000  16.126233   0.000000   7.537223   # H_
 294 1 5   0.000000   7.537223  14.924367  10.350200   # H_
 295 1 5   0.000000  10.350200   2.812977  16.126233   # H_
 296 1 5   0.000000  10.350200   5.776033  13.163177   # H_
 297 1 5   0.000000   4.574167  17.887423  10.350200   # H_
 298 1 5   0.000000  13.163177   0.000000   4.574167   # H_
 299 1 5   0.000000   4.574167  10.350200   2.812977   # H_
 300 1 5   0.000000   4.574167  10.350200  17.887423   # H_
 301 1 5   0.000000  13.163177   4.574167   0.000000   # H_
 302 1 5   0.000000   7.537223   4.574167   0.000000   # H_
 303 1 5   0.000000   7.537223  16.126233   0.000000   # H_
 304 1 5   0.000000  10.350200   7.537223  14.924367   # H_
 305 1 5   0.000000  10.350200   4.574167  17.887423   # H_
 306 1 5   0.000000   4.574167  13.163177   0.000000   # H_
 307 1 5   0.000000   4.574167   7.537223   0.000000   # H_
 308 1 5   0.000000  16.126233   7.537223   0.000000   # H_
 309 1 5   0.000000   7.537223  10.350200   5.776033   # H_
 310 1 5   0.000000   7.537223  10.350200  14.924367   # H_
 311 1 17   0.000000   2.481978  20.700400   0.000000   # Zr8f4
 312 1 17   0.000000  18.219250  20.700400   0.000000   # Zr8f4
 313 1 17   0.000000   0.000000  23.182378   0.000000   # Zr8f4
 314 1 17   0.000000   0.000000  38.919650   0.000000   # Zr8f4
 315 1 17   0.000000   0.000000  20.700400   2.481978   # Zr8f4
 316 1 17   0.000000   0.000000  20.700400  18.219250   # Zr8f4
 317 1 17   0.000000   2.481978  31.050600  10.350200   # Zr8f4
 318 1 17   0.000000  18.219250  31.050600  10.350200   # Zr8f4
 319 1 17   0.000000   0.000000  33.532578  10.350200   # Zr8f4
 320 1 17   0.000000   0.000000  28.568622  10.350200   # Zr8f4
 321 1 17   0.000000   0.000000  31.050600  12.832178   # Zr8f4
 322 1 17   0.000000   0.000000  31.050600   7.868222   # Zr8f4
 323 1 17   0.000000  12.832178  20.700400  10.350200   # Zr8f4
 324 1 17   0.000000   7.868222  20.700400  10.350200   # Zr8f4
 325 1 17   0.000000  10.350200  23.182378  10.350200   # Zr8f4
 326 1 17   0.000000  10.350200  38.919650  10.350200   # Zr8f4
 327 1 17   0.000000  10.350200  20.700400  12.832178   # Zr8f4
 328 1 17   0.000000  10.350200  20.700400   7.868222   # Zr8f4
 329 1 17   0.000000  12.832178  31.050600   0.000000   # Zr8f4
 330 1 17   0.000000   7.868222  31.050600   0.000000   # Zr8f4
 331 1 17   0.000000  10.350200  33.532578   0.000000   # Zr8f4
 332 1 17   0.000000  10.350200  28.568622   0.000000   # Zr8f4
 333 1 17   0.000000  10.350200  31.050600   2.481978   # Zr8f4
 334 1 17   0.000000  10.350200  31.050600  18.219250   # Zr8f4
 335 1 16   0.000000   3.529004  20.700400   1.972955   # O_2_M
 336 1 11   0.000000  17.172431  20.700400   1.972955   # O_2_M
 337 1 16   0.000000  17.172431  20.700400  18.728273   # O_2_M
 338 1 16   0.000000   3.529004  20.700400  18.728273   # O_2_M
 339 1 16   0.000000   1.972955  24.229404   0.000000   # O_2_M
 340 1 16   0.000000   1.972955  37.872831   0.000000   # O_2_M
 341 1 16   0.000000  18.728273  37.872831   0.000000   # O_2_M
 342 1 16   0.000000  18.728273  24.229404   0.000000   # O_2_M
 343 1 16   0.000000   0.000000  22.673355   3.529004   # O_2_M
 344 1 16   0.000000   0.000000  22.673355  17.172431   # O_2_M
 345 1 16   0.000000   0.000000  39.428673  17.172431   # O_2_M
 346 1 11   0.000000   0.000000  39.428673   3.529004   # O_2_M
 347 1 16   0.000000   0.000000  24.229404  18.728273   # O_2_M
 348 1 16   0.000000   0.000000  37.872831  18.728273   # O_2_M
 349 1 11   0.000000   0.000000  37.872831   1.972955   # O_2_M
 350 1 16   0.000000   0.000000  24.229404   1.972955   # O_2_M
 351 1 16   0.000000   3.529004  22.673355   0.000000   # O_2_M
 352 1 16   0.000000  17.172431  22.673355   0.000000   # O_2_M
 353 1 16   0.000000  17.172431  39.428673   0.000000   # O_2_M
 354 1 16   0.000000   3.529004  39.428673   0.000000   # O_2_M
 355 1 16   0.000000   1.972955  20.700400  17.172431   # O_2_M
 356 1 16   0.000000   1.972955  20.700400   3.529004   # O_2_M
 357 1 11   0.000000  18.728273  20.700400   3.529004   # O_2_M
 358 1 16   0.000000  18.728273  20.700400  17.172431   # O_2_M
 359 1 16   0.000000   3.529004  31.050600  12.323155   # O_2_M
 360 1 11   0.000000  17.172431  31.050600  12.323155   # O_2_M
 361 1 16   0.000000  17.172431  31.050600   8.377245   # O_2_M
 362 1 16   0.000000   3.529004  31.050600   8.377245   # O_2_M
 363 1 16   0.000000   1.972955  34.579604  10.350200   # O_2_M
 364 1 16   0.000000   1.972955  27.521596  10.350200   # O_2_M
 365 1 16   0.000000  18.728273  27.521596  10.350200   # O_2_M
 366 1 16   0.000000  18.728273  34.579604  10.350200   # O_2_M
 367 1 16   0.000000   0.000000  33.023555  13.879204   # O_2_M
 368 1 11   0.000000   0.000000  33.023555   6.821196   # O_2_M
 369 1 16   0.000000   0.000000  29.077645   6.821196   # O_2_M
 370 1 16   0.000000   0.000000  29.077645  13.879204   # O_2_M
 371 1 11   0.000000   0.000000  34.579604   8.377245   # O_2_M
 372 1 16   0.000000   0.000000  27.521596   8.377245   # O_2_M
 373 1 16   0.000000   0.000000  27.521596  12.323155   # O_2_M
 374 1 16   0.000000   0.000000  34.579604  12.323155   # O_2_M
 375 1 16   0.000000   3.529004  33.023555  10.350200   # O_2_M
 376 1 16   0.000000  17.172431  33.023555  10.350200   # O_2_M
 377 1 16   0.000000  17.172431  29.077645  10.350200   # O_2_M
 378 1 16   0.000000   3.529004  29.077645  10.350200   # O_2_M
 379 1 16   0.000000   1.972955  31.050600   6.821196   # O_2_M
 380 1 16   0.000000   1.972955  31.050600  13.879204   # O_2_M
 381 1 11   0.000000  18.728273  31.050600  13.879204   # O_2_M
 382 1 16   0.000000  18.728273  31.050600   6.821196   # O_2_M
 383 1 16   0.000000  13.879204  20.700400  12.323155   # O_2_M
 384 1 16   0.000000   6.821196  20.700400  12.323155   # O_2_M
 385 1 16   0.000000   6.821196  20.700400   8.377245   # O_2_M
 386 1 11   0.000000  13.879204  20.700400   8.377245   # O_2_M
 387 1 16   0.000000  12.323155  24.229404  10.350200   # O_2_M
 388 1 16   0.000000  12.323155  37.872831  10.350200   # O_2_M
 389 1 16   0.000000   8.377245  37.872831  10.350200   # O_2_M
 390 1 16   0.000000   8.377245  24.229404  10.350200   # O_2_M
 391 1 16   0.000000  10.350200  22.673355  13.879204   # O_2_M
 392 1 11   0.000000  10.350200  22.673355   6.821196   # O_2_M
 393 1 11   0.000000  10.350200  39.428673   6.821196   # O_2_M
 394 1 16   0.000000  10.350200  39.428673  13.879204   # O_2_M
 395 1 11   0.000000  10.350200  24.229404   8.377245   # O_2_M
 396 1 11   0.000000  10.350200  37.872831   8.377245   # O_2_M
 397 1 16   0.000000  10.350200  37.872831  12.323155   # O_2_M
 398 1 16   0.000000  10.350200  24.229404  12.323155   # O_2_M
 399 1 16   0.000000  13.879204  22.673355  10.350200   # O_2_M
 400 1 16   0.000000   6.821196  22.673355  10.350200   # O_2_M
 401 1 16   0.000000   6.821196  39.428673  10.350200   # O_2_M
 402 1 16   0.000000  13.879204  39.428673  10.350200   # O_2_M
 403 1 11   0.000000  12.323155  20.700400   6.821196   # O_2_M
 404 1 16   0.000000  12.323155  20.700400  13.879204   # O_2_M
 405 1 16   0.000000   8.377245  20.700400  13.879204   # O_2_M
 406 1 16   0.000000   8.377245  20.700400   6.821196   # O_2_M
 407 1 16   0.000000  13.879204  31.050600   1.972955   # O_2_M
 408 1 16   0.000000   6.821196  31.050600   1.972955   # O_2_M
 409 1 16   0.000000   6.821196  31.050600  18.728273   # O_2_M
 410 1 11   0.000000  13.879204  31.050600  18.728273   # O_2_M
 411 1 16   0.000000  12.323155  34.579604   0.000000   # O_2_M
 412 1 16   0.000000  12.323155  27.521596   0.000000   # O_2_M
 413 1 16   0.000000   8.377245  27.521596   0.000000   # O_2_M
 414 1 16   0.000000   8.377245  34.579604   0.000000   # O_2_M
 415 1 11   0.000000  10.350200  33.023555   3.529004   # O_2_M
 416 1 16   0.000000  10.350200  33.023555  17.172431   # O_2_M
 417 1 16   0.000000  10.350200  29.077645  17.172431   # O_2_M
 418 1 11   0.000000  10.350200  29.077645   3.529004   # O_2_M
 419 1 16   0.000000  10.350200  34.579604  18.728273   # O_2_M
 420 1 16   0.000000  10.350200  27.521596  18.728273   # O_2_M
 421 1 11   0.000000  10.350200  27.521596   1.972955   # O_2_M
 422 1 11   0.000000  10.350200  34.579604   1.972955   # O_2_M
 423 1 16   0.000000  13.879204  33.023555   0.000000   # O_2_M
 424 1 16   0.000000   6.821196  33.023555   0.000000   # O_2_M
 425 1 16   0.000000   6.821196  29.077645   0.000000   # O_2_M
 426 1 16   0.000000  13.879204  29.077645   0.000000   # O_2_M
 427 1 11   0.000000  12.323155  31.050600  17.172431   # O_2_M
 428 1 16   0.000000  12.323155  31.050600   3.529004   # O_2_M
 429 1 16   0.000000   8.377245  31.050600   3.529004   # O_2_M
 430 1 16   0.000000   8.377245  31.050600  17.172431   # O_2_M
 431 1 12   0.000000   1.161085  40.239715  19.539315   # O_3_f
 432 1 12   0.000000  19.539315  21.861485  19.539315   # O_3_f